 Entering Gaussian System, Link 0=g16
 Input=P1.com
 Output=P1.log
 Initial command:
 /share/apps/g16A03/l1.exe "/tmp/468740.tmpdir/scr/Gau-13176.inp" -scrdir="/tmp/468740.tmpdir/scr/"
 Entering Link 1 = /share/apps/g16A03/l1.exe PID=     13177.
  
 Copyright (c) 1988,1990,1992,1993,1995,1998,2003,2009,2016,
            Gaussian, Inc.  All Rights Reserved.
  
 This is part of the Gaussian(R) 16 program.  It is based on
 the Gaussian(R) 09 system (copyright 2009, Gaussian, Inc.),
 the Gaussian(R) 03 system (copyright 2003, Gaussian, Inc.),
 the Gaussian(R) 98 system (copyright 1998, Gaussian, Inc.),
 the Gaussian(R) 94 system (copyright 1995, Gaussian, Inc.),
 the Gaussian 92(TM) system (copyright 1992, Gaussian, Inc.),
 the Gaussian 90(TM) system (copyright 1990, Gaussian, Inc.),
 the Gaussian 88(TM) system (copyright 1988, Gaussian, Inc.),
 the Gaussian 86(TM) system (copyright 1986, Carnegie Mellon
 University), and the Gaussian 82(TM) system (copyright 1983,
 Carnegie Mellon University). Gaussian is a federally registered
 trademark of Gaussian, Inc.
  
 This software contains proprietary and confidential information,
 including trade secrets, belonging to Gaussian, Inc.
  
 This software is provided under written license and may be
 used, copied, transmitted, or stored only in accord with that
 written license.
  
 The following legend is applicable only to US Government
 contracts under FAR:
  
                    RESTRICTED RIGHTS LEGEND
  
 Use, reproduction and disclosure by the US Government is
 subject to restrictions as set forth in subparagraphs (a)
 and (c) of the Commercial Computer Software - Restricted
 Rights clause in FAR 52.227-19.
  
 Gaussian, Inc.
 340 Quinnipiac St., Bldg. 40, Wallingford CT 06492
  
  
 ---------------------------------------------------------------
 Warning -- This program may not be used in any manner that
 competes with the business of Gaussian, Inc. or will provide
 assistance to any competitor of Gaussian, Inc.  The licensee
 of this program is prohibited from giving any competitor of
 Gaussian, Inc. access to this program.  By using this program,
 the user acknowledges that Gaussian, Inc. is engaged in the
 business of creating and licensing software in the field of
 computational chemistry and represents and warrants to the
 licensee that it is not a competitor of Gaussian, Inc. and that
 it will not use this program in any manner prohibited above.
 ---------------------------------------------------------------
  

 Cite this work as:
 Gaussian 16, Revision A.03,
 M. J. Frisch, G. W. Trucks, H. B. Schlegel, G. E. Scuseria, 
 M. A. Robb, J. R. Cheeseman, G. Scalmani, V. Barone, 
 G. A. Petersson, H. Nakatsuji, X. Li, M. Caricato, A. V. Marenich, 
 J. Bloino, B. G. Janesko, R. Gomperts, B. Mennucci, H. P. Hratchian, 
 J. V. Ortiz, A. F. Izmaylov, J. L. Sonnenberg, D. Williams-Young, 
 F. Ding, F. Lipparini, F. Egidi, J. Goings, B. Peng, A. Petrone, 
 T. Henderson, D. Ranasinghe, V. G. Zakrzewski, J. Gao, N. Rega, 
 G. Zheng, W. Liang, M. Hada, M. Ehara, K. Toyota, R. Fukuda, 
 J. Hasegawa, M. Ishida, T. Nakajima, Y. Honda, O. Kitao, H. Nakai, 
 T. Vreven, K. Throssell, J. A. Montgomery, Jr., J. E. Peralta, 
 F. Ogliaro, M. J. Bearpark, J. J. Heyd, E. N. Brothers, K. N. Kudin, 
 V. N. Staroverov, T. A. Keith, R. Kobayashi, J. Normand, 
 K. Raghavachari, A. P. Rendell, J. C. Burant, S. S. Iyengar, 
 J. Tomasi, M. Cossi, J. M. Millam, M. Klene, C. Adamo, R. Cammi, 
 J. W. Ochterski, R. L. Martin, K. Morokuma, O. Farkas, 
 J. B. Foresman, and D. J. Fox, Gaussian, Inc., Wallingford CT, 2016.
 
 ******************************************
 Gaussian 16:  ES64L-G16RevA.03 25-Dec-2016
                 8-Oct-2024 
 ******************************************
 %nprocs=32
 Will use up to   32 processors via shared memory.
 %chk=P1-opt.chk
 %mem=10GB
 ----------------------------------------------------------------------
 #p opt freq m062x def2svp em=gd3 scrf=solvent=chloroform symm=veryloos
 e
 ----------------------------------------------------------------------
 1/18=20,19=15,26=3,38=1/1,3;
 2/9=110,12=2,17=2,18=2,40=1/2;
 3/5=43,7=101,11=2,25=1,30=1,70=2201,71=1,72=7,74=-55,124=31/1,2,3;
 4//1;
 5/5=2,38=5,53=7/2;
 6/7=2,8=2,9=2,10=2,28=1/1;
 7//1,2,3,16;
 1/18=20,19=15,26=3/3(2);
 2/9=110/2;
 99//99;
 2/9=110/2;
 3/5=43,7=101,11=2,25=1,30=1,70=2205,71=1,72=7,74=-55,124=31/1,2,3;
 4/5=5,16=3,69=1/1;
 5/5=2,38=5,53=7/2;
 7//1,2,3,16;
 1/18=20,19=15,26=3/3(-5);
 2/9=110/2;
 6/7=2,8=2,9=2,10=2,19=2,28=1/1;
 99/9=1/99;
 Leave Link    1 at Tue Oct  8 09:45:34 2024, MaxMem=  1342177280 cpu:               1.3 elap:               0.1
 (Enter /share/apps/g16A03/l101.exe)
 ---------------------
 9ITAb
 ---------------------
 Symbolic Z-matrix:
 Charge =  0 Multiplicity = 1
 C                    -9.4294   -1.04569   0.08883 
 C                    -9.26572  -2.42933  -0.11754 
 C                    -7.99794  -2.96576  -0.19978 
 C                    -6.85363  -2.13878  -0.0757 
 C                    -7.00969  -0.74374   0.13035 
 C                    -8.32866  -0.2224    0.20622 
 C                    -5.55975  -2.69306  -0.15686 
 C                    -4.45412  -1.86843  -0.02596 
 C                    -4.58172  -0.44112   0.19162 
 C                    -5.87647   0.09807   0.2574 
 C                    -6.10386   1.55624   0.44662 
 N                    -7.4158    2.01958   0.51574 
 C                    -8.56158   1.23325   0.41383 
 C                    -7.85284  -4.43332  -0.42302 
 N                    -6.5446   -4.91993  -0.5039 
 C                    -5.39205  -4.15194  -0.37758 
 O                    -9.67048   1.70483   0.48405 
 O                    -5.19851   2.35382   0.53789 
 O                    -8.80856  -5.16163  -0.53226 
 O                    -4.29863  -4.6674   -0.45001 
 S                    -2.80268  -2.41226  -0.1025 
 C                    -2.24346  -0.77965   0.15653 
 C                    -3.26151   0.14504   0.29943 
 C                    -0.90855  -0.24069   0.27367 
 C                    -1.02098   1.15588   0.539 
 S                    -2.64978   1.7582    0.61685 
 C                     0.35524  -0.84924   0.15618 
 C                     1.47759  -0.01707   0.33164 
 C                     1.33998   1.3698    0.61034 
 C                     0.09036   1.972     0.71553 
 C                     2.8819   -0.33007   0.26681 
 C                     3.72876   0.74076   0.48562 
 S                     2.84299   2.22331   0.80056 
 S                     3.70066  -1.83856  -0.04655 
 C                     5.1274    0.37597   0.41245 
 C                     5.24092  -1.04016   0.11778 
 C                     6.47184  -1.66525  -0.01122 
 C                     7.65309  -0.91236   0.15507 
 C                     7.57127   0.47381   0.44742 
 C                     6.31252   1.11074   0.57219 
 C                     8.92281  -1.53036   0.03295 
 C                     10.08121  -0.80036   0.19613 
 C                     10.00693   0.57567   0.48917 
 C                     8.7822    1.19777   0.61179 
 C                     8.76348   2.65414   0.92209 
 N                     7.50075   3.23258   1.0301 
 C                     6.28796   2.56696   0.87338 
 C                     6.54843  -3.1186   -0.32161 
 N                     7.81998  -3.67522  -0.43675 
 C                     9.02108  -2.98423  -0.27441 
 O                     5.25937   3.19398   0.98686 
 O                     9.77498   3.29511   1.07111 
 O                     5.54819  -3.78367  -0.46922 
 O                     10.07684  -3.55884  -0.38466 
 O                    -0.04698   3.29783   0.97699 
 C                     0.55499  -2.30746  -0.15279 
 H                    -10.41916  -0.5938    0.16212 
 H                    -10.12222  -3.09738  -0.21375 
 H                     11.03966  -1.30998   0.09153 
 H                     10.90596   1.17759   0.6251 
 H                    -0.38387  -2.84018  -0.32901 
 H                     1.17177  -2.42662  -1.05661 
 H                     1.07696  -2.81691   0.67204 
 C                     7.4018    4.65959   1.32615 
 H                     6.88585   5.1734    0.50542 
 H                     6.81265   4.80418   2.23963 
 H                     8.4142    5.05027   1.45016 
 C                     7.94415  -5.09756  -0.74381 
 H                     8.54533  -5.22093  -1.65267 
 H                     8.46103  -5.6097    0.07762 
 H                     6.94135  -5.50782  -0.88118 
 C                    -6.33595  -6.34694  -0.72964 
 H                    -5.68457  -6.48607  -1.60045 
 H                    -5.84141  -6.79521   0.14187 
 H                    -7.31233  -6.8087   -0.89214 
 C                    -7.56563   3.45966   0.70663 
 H                    -7.0687    3.76145   1.63678 
 H                    -7.0842    3.99363  -0.12199 
 H                    -8.63351   3.6857    0.74467 
 C                     0.00092   4.12907  -0.17384 
 H                     0.96317   4.01683  -0.69863 
 H                    -0.82405   3.88612  -0.86247 
 H                    -0.10509   5.16182   0.17585 
 
 ITRead=  0  0  0  0  0  0  0  0  0  0  0  0  0  0  0  0  0  0  0  0
 ITRead=  0  0  0  0  0  0  0  0  0  0  0  0  0  0  0  0  0  0  0  0
 ITRead=  0  0  0  0  0  0  0  0  0  0  0  0  0  0  0  0  0  0  0  0
 ITRead=  0  0  0  0  0  0  0  0  0  0  0  0  0  0  0  0  0  0  0  0
 ITRead=  0  0  0
 MicOpt= -1 -1 -1 -1 -1 -1 -1 -1 -1 -1 -1 -1 -1 -1 -1 -1 -1 -1 -1 -1
 MicOpt= -1 -1 -1 -1 -1 -1 -1 -1 -1 -1 -1 -1 -1 -1 -1 -1 -1 -1 -1 -1
 MicOpt= -1 -1 -1 -1 -1 -1 -1 -1 -1 -1 -1 -1 -1 -1 -1 -1 -1 -1 -1 -1
 MicOpt= -1 -1 -1 -1 -1 -1 -1 -1 -1 -1 -1 -1 -1 -1 -1 -1 -1 -1 -1 -1
 MicOpt= -1 -1 -1
 NAtoms=     83 NQM=       83 NQMF=       0 NMMI=      0 NMMIF=      0
                NMic=       0 NMicF=      0.
                    Isotopes and Nuclear Properties:
 (Nuclear quadrupole moments (NQMom) in fm**2, nuclear magnetic moments (NMagM)
  in nuclear magnetons)

  Atom         1           2           3           4           5           6           7           8           9          10
 IAtWgt=          12          12          12          12          12          12          12          12          12          12
 AtmWgt=  12.0000000  12.0000000  12.0000000  12.0000000  12.0000000  12.0000000  12.0000000  12.0000000  12.0000000  12.0000000
 NucSpn=           0           0           0           0           0           0           0           0           0           0
 AtZEff=  -0.0000000  -0.0000000  -0.0000000  -0.0000000  -0.0000000  -0.0000000  -0.0000000  -0.0000000  -0.0000000  -0.0000000
 NQMom=    0.0000000   0.0000000   0.0000000   0.0000000   0.0000000   0.0000000   0.0000000   0.0000000   0.0000000   0.0000000
 NMagM=    0.0000000   0.0000000   0.0000000   0.0000000   0.0000000   0.0000000   0.0000000   0.0000000   0.0000000   0.0000000
 AtZNuc=   6.0000000   6.0000000   6.0000000   6.0000000   6.0000000   6.0000000   6.0000000   6.0000000   6.0000000   6.0000000

  Atom        11          12          13          14          15          16          17          18          19          20
 IAtWgt=          12          14          12          12          14          12          16          16          16          16
 AtmWgt=  12.0000000  14.0030740  12.0000000  12.0000000  14.0030740  12.0000000  15.9949146  15.9949146  15.9949146  15.9949146
 NucSpn=           0           2           0           0           2           0           0           0           0           0
 AtZEff=  -0.0000000  -0.0000000  -0.0000000  -0.0000000  -0.0000000  -0.0000000  -0.0000000  -0.0000000  -0.0000000  -0.0000000
 NQMom=    0.0000000   2.0440000   0.0000000   0.0000000   2.0440000   0.0000000   0.0000000   0.0000000   0.0000000   0.0000000
 NMagM=    0.0000000   0.4037610   0.0000000   0.0000000   0.4037610   0.0000000   0.0000000   0.0000000   0.0000000   0.0000000
 AtZNuc=   6.0000000   7.0000000   6.0000000   6.0000000   7.0000000   6.0000000   8.0000000   8.0000000   8.0000000   8.0000000

  Atom        21          22          23          24          25          26          27          28          29          30
 IAtWgt=          32          12          12          12          12          32          12          12          12          12
 AtmWgt=  31.9720718  12.0000000  12.0000000  12.0000000  12.0000000  31.9720718  12.0000000  12.0000000  12.0000000  12.0000000
 NucSpn=           0           0           0           0           0           0           0           0           0           0
 AtZEff=  -0.0000000  -0.0000000  -0.0000000  -0.0000000  -0.0000000  -0.0000000  -0.0000000  -0.0000000  -0.0000000  -0.0000000
 NQMom=    0.0000000   0.0000000   0.0000000   0.0000000   0.0000000   0.0000000   0.0000000   0.0000000   0.0000000   0.0000000
 NMagM=    0.0000000   0.0000000   0.0000000   0.0000000   0.0000000   0.0000000   0.0000000   0.0000000   0.0000000   0.0000000
 AtZNuc=  16.0000000   6.0000000   6.0000000   6.0000000   6.0000000  16.0000000   6.0000000   6.0000000   6.0000000   6.0000000

  Atom        31          32          33          34          35          36          37          38          39          40
 IAtWgt=          12          12          32          32          12          12          12          12          12          12
 AtmWgt=  12.0000000  12.0000000  31.9720718  31.9720718  12.0000000  12.0000000  12.0000000  12.0000000  12.0000000  12.0000000
 NucSpn=           0           0           0           0           0           0           0           0           0           0
 AtZEff=  -0.0000000  -0.0000000  -0.0000000  -0.0000000  -0.0000000  -0.0000000  -0.0000000  -0.0000000  -0.0000000  -0.0000000
 NQMom=    0.0000000   0.0000000   0.0000000   0.0000000   0.0000000   0.0000000   0.0000000   0.0000000   0.0000000   0.0000000
 NMagM=    0.0000000   0.0000000   0.0000000   0.0000000   0.0000000   0.0000000   0.0000000   0.0000000   0.0000000   0.0000000
 AtZNuc=   6.0000000   6.0000000  16.0000000  16.0000000   6.0000000   6.0000000   6.0000000   6.0000000   6.0000000   6.0000000

  Atom        41          42          43          44          45          46          47          48          49          50
 IAtWgt=          12          12          12          12          12          14          12          12          14          12
 AtmWgt=  12.0000000  12.0000000  12.0000000  12.0000000  12.0000000  14.0030740  12.0000000  12.0000000  14.0030740  12.0000000
 NucSpn=           0           0           0           0           0           2           0           0           2           0
 AtZEff=  -0.0000000  -0.0000000  -0.0000000  -0.0000000  -0.0000000  -0.0000000  -0.0000000  -0.0000000  -0.0000000  -0.0000000
 NQMom=    0.0000000   0.0000000   0.0000000   0.0000000   0.0000000   2.0440000   0.0000000   0.0000000   2.0440000   0.0000000
 NMagM=    0.0000000   0.0000000   0.0000000   0.0000000   0.0000000   0.4037610   0.0000000   0.0000000   0.4037610   0.0000000
 AtZNuc=   6.0000000   6.0000000   6.0000000   6.0000000   6.0000000   7.0000000   6.0000000   6.0000000   7.0000000   6.0000000

  Atom        51          52          53          54          55          56          57          58          59          60
 IAtWgt=          16          16          16          16          16          12           1           1           1           1
 AtmWgt=  15.9949146  15.9949146  15.9949146  15.9949146  15.9949146  12.0000000   1.0078250   1.0078250   1.0078250   1.0078250
 NucSpn=           0           0           0           0           0           0           1           1           1           1
 AtZEff=  -0.0000000  -0.0000000  -0.0000000  -0.0000000  -0.0000000  -0.0000000  -0.0000000  -0.0000000  -0.0000000  -0.0000000
 NQMom=    0.0000000   0.0000000   0.0000000   0.0000000   0.0000000   0.0000000   0.0000000   0.0000000   0.0000000   0.0000000
 NMagM=    0.0000000   0.0000000   0.0000000   0.0000000   0.0000000   0.0000000   2.7928460   2.7928460   2.7928460   2.7928460
 AtZNuc=   8.0000000   8.0000000   8.0000000   8.0000000   8.0000000   6.0000000   1.0000000   1.0000000   1.0000000   1.0000000

  Atom        61          62          63          64          65          66          67          68          69          70
 IAtWgt=           1           1           1          12           1           1           1          12           1           1
 AtmWgt=   1.0078250   1.0078250   1.0078250  12.0000000   1.0078250   1.0078250   1.0078250  12.0000000   1.0078250   1.0078250
 NucSpn=           1           1           1           0           1           1           1           0           1           1
 AtZEff=  -0.0000000  -0.0000000  -0.0000000  -0.0000000  -0.0000000  -0.0000000  -0.0000000  -0.0000000  -0.0000000  -0.0000000
 NQMom=    0.0000000   0.0000000   0.0000000   0.0000000   0.0000000   0.0000000   0.0000000   0.0000000   0.0000000   0.0000000
 NMagM=    2.7928460   2.7928460   2.7928460   0.0000000   2.7928460   2.7928460   2.7928460   0.0000000   2.7928460   2.7928460
 AtZNuc=   1.0000000   1.0000000   1.0000000   6.0000000   1.0000000   1.0000000   1.0000000   6.0000000   1.0000000   1.0000000

  Atom        71          72          73          74          75          76          77          78          79          80
 IAtWgt=           1          12           1           1           1          12           1           1           1          12
 AtmWgt=   1.0078250  12.0000000   1.0078250   1.0078250   1.0078250  12.0000000   1.0078250   1.0078250   1.0078250  12.0000000
 NucSpn=           1           0           1           1           1           0           1           1           1           0
 AtZEff=  -0.0000000  -0.0000000  -0.0000000  -0.0000000  -0.0000000  -0.0000000  -0.0000000  -0.0000000  -0.0000000  -0.0000000
 NQMom=    0.0000000   0.0000000   0.0000000   0.0000000   0.0000000   0.0000000   0.0000000   0.0000000   0.0000000   0.0000000
 NMagM=    2.7928460   0.0000000   2.7928460   2.7928460   2.7928460   0.0000000   2.7928460   2.7928460   2.7928460   0.0000000
 AtZNuc=   1.0000000   6.0000000   1.0000000   1.0000000   1.0000000   6.0000000   1.0000000   1.0000000   1.0000000   6.0000000

  Atom        81          82          83
 IAtWgt=           1           1           1
 AtmWgt=   1.0078250   1.0078250   1.0078250
 NucSpn=           1           1           1
 AtZEff=  -0.0000000  -0.0000000  -0.0000000
 NQMom=    0.0000000   0.0000000   0.0000000
 NMagM=    2.7928460   2.7928460   2.7928460
 AtZNuc=   1.0000000   1.0000000   1.0000000
 Leave Link  101 at Tue Oct  8 09:45:34 2024, MaxMem=  1342177280 cpu:               9.9 elap:               0.3
 (Enter /share/apps/g16A03/l103.exe)

 GradGradGradGradGradGradGradGradGradGradGradGradGradGradGradGradGradGrad
 Berny optimization.
 Initialization pass.
                           ----------------------------
                           !    Initial Parameters    !
                           ! (Angstroms and Degrees)  !
 --------------------------                            --------------------------
 ! Name  Definition              Value          Derivative Info.                !
 --------------------------------------------------------------------------------
 ! R1    R(1,2)                  1.4085         estimate D2E/DX2                !
 ! R2    R(1,6)                  1.3796         estimate D2E/DX2                !
 ! R3    R(1,57)                 1.0905         estimate D2E/DX2                !
 ! R4    R(2,3)                  1.3791         estimate D2E/DX2                !
 ! R5    R(2,58)                 1.0905         estimate D2E/DX2                !
 ! R6    R(3,4)                  1.4173         estimate D2E/DX2                !
 ! R7    R(3,14)                 1.4915         estimate D2E/DX2                !
 ! R8    R(4,5)                  1.4188         estimate D2E/DX2                !
 ! R9    R(4,7)                  1.4099         estimate D2E/DX2                !
 ! R10   R(5,6)                  1.4203         estimate D2E/DX2                !
 ! R11   R(5,10)                 1.4174         estimate D2E/DX2                !
 ! R12   R(6,13)                 1.4887         estimate D2E/DX2                !
 ! R13   R(7,8)                  1.3855         estimate D2E/DX2                !
 ! R14   R(7,16)                 1.485          estimate D2E/DX2                !
 ! R15   R(8,9)                  1.4494         estimate D2E/DX2                !
 ! R16   R(8,21)                 1.7404         estimate D2E/DX2                !
 ! R17   R(9,10)                 1.4041         estimate D2E/DX2                !
 ! R18   R(9,23)                 1.4485         estimate D2E/DX2                !
 ! R19   R(10,11)                1.4879         estimate D2E/DX2                !
 ! R20   R(11,12)                1.3931         estimate D2E/DX2                !
 ! R21   R(11,18)                1.21           estimate D2E/DX2                !
 ! R22   R(12,13)                1.3934         estimate D2E/DX2                !
 ! R23   R(12,76)                1.4604         estimate D2E/DX2                !
 ! R24   R(13,17)                1.2071         estimate D2E/DX2                !
 ! R25   R(14,15)                1.3981         estimate D2E/DX2                !
 ! R26   R(14,19)                1.2065         estimate D2E/DX2                !
 ! R27   R(15,16)                1.3907         estimate D2E/DX2                !
 ! R28   R(15,72)                1.4597         estimate D2E/DX2                !
 ! R29   R(16,20)                1.211          estimate D2E/DX2                !
 ! R30   R(21,22)                1.7451         estimate D2E/DX2                !
 ! R31   R(22,23)                1.3827         estimate D2E/DX2                !
 ! R32   R(22,24)                1.4444         estimate D2E/DX2                !
 ! R33   R(23,26)                1.7542         estimate D2E/DX2                !
 ! R34   R(24,25)                1.426          estimate D2E/DX2                !
 ! R35   R(24,27)                1.4076         estimate D2E/DX2                !
 ! R36   R(25,26)                1.7383         estimate D2E/DX2                !
 ! R37   R(25,30)                1.3901         estimate D2E/DX2                !
 ! R38   R(27,28)                1.4082         estimate D2E/DX2                !
 ! R39   R(27,56)                1.5039         estimate D2E/DX2                !
 ! R40   R(28,29)                1.4213         estimate D2E/DX2                !
 ! R41   R(28,31)                1.4402         estimate D2E/DX2                !
 ! R42   R(29,30)                1.3911         estimate D2E/DX2                !
 ! R43   R(29,33)                1.7389         estimate D2E/DX2                !
 ! R44   R(30,55)                1.3583         estimate D2E/DX2                !
 ! R45   R(31,32)                1.3827         estimate D2E/DX2                !
 ! R46   R(31,34)                1.7447         estimate D2E/DX2                !
 ! R47   R(32,33)                1.7555         estimate D2E/DX2                !
 ! R48   R(32,35)                1.4473         estimate D2E/DX2                !
 ! R49   R(34,36)                1.7427         estimate D2E/DX2                !
 ! R50   R(35,36)                1.4509         estimate D2E/DX2                !
 ! R51   R(35,40)                1.4035         estimate D2E/DX2                !
 ! R52   R(36,37)                1.3866         estimate D2E/DX2                !
 ! R53   R(37,38)                1.4106         estimate D2E/DX2                !
 ! R54   R(37,48)                1.4881         estimate D2E/DX2                !
 ! R55   R(38,39)                1.419          estimate D2E/DX2                !
 ! R56   R(38,41)                1.4174         estimate D2E/DX2                !
 ! R57   R(39,40)                1.4162         estimate D2E/DX2                !
 ! R58   R(39,44)                1.4204         estimate D2E/DX2                !
 ! R59   R(40,47)                1.4872         estimate D2E/DX2                !
 ! R60   R(41,42)                1.3789         estimate D2E/DX2                !
 ! R61   R(41,50)                1.4892         estimate D2E/DX2                !
 ! R62   R(42,43)                1.4089         estimate D2E/DX2                !
 ! R63   R(42,59)                1.0905         estimate D2E/DX2                !
 ! R64   R(43,44)                1.3791         estimate D2E/DX2                !
 ! R65   R(43,60)                1.0904         estimate D2E/DX2                !
 ! R66   R(44,45)                1.4892         estimate D2E/DX2                !
 ! R67   R(45,46)                1.3931         estimate D2E/DX2                !
 ! R68   R(45,52)                1.2067         estimate D2E/DX2                !
 ! R69   R(46,47)                1.3923         estimate D2E/DX2                !
 ! R70   R(46,64)                1.4607         estimate D2E/DX2                !
 ! R71   R(47,51)                1.21           estimate D2E/DX2                !
 ! R72   R(48,49)                1.3928         estimate D2E/DX2                !
 ! R73   R(48,53)                1.2102         estimate D2E/DX2                !
 ! R74   R(49,50)                1.3951         estimate D2E/DX2                !
 ! R75   R(49,68)                1.4604         estimate D2E/DX2                !
 ! R76   R(50,54)                1.207          estimate D2E/DX2                !
 ! R77   R(55,80)                1.4205         estimate D2E/DX2                !
 ! R78   R(56,61)                1.0938         estimate D2E/DX2                !
 ! R79   R(56,62)                1.1007         estimate D2E/DX2                !
 ! R80   R(56,63)                1.1011         estimate D2E/DX2                !
 ! R81   R(64,65)                1.0972         estimate D2E/DX2                !
 ! R82   R(64,66)                1.0966         estimate D2E/DX2                !
 ! R83   R(64,67)                1.0922         estimate D2E/DX2                !
 ! R84   R(68,69)                1.0967         estimate D2E/DX2                !
 ! R85   R(68,70)                1.0974         estimate D2E/DX2                !
 ! R86   R(68,71)                1.0921         estimate D2E/DX2                !
 ! R87   R(72,73)                1.0963         estimate D2E/DX2                !
 ! R88   R(72,74)                1.0977         estimate D2E/DX2                !
 ! R89   R(72,75)                1.0922         estimate D2E/DX2                !
 ! R90   R(76,77)                1.0969         estimate D2E/DX2                !
 ! R91   R(76,78)                1.0971         estimate D2E/DX2                !
 ! R92   R(76,79)                1.0922         estimate D2E/DX2                !
 ! R93   R(80,81)                1.1018         estimate D2E/DX2                !
 ! R94   R(80,82)                1.1017         estimate D2E/DX2                !
 ! R95   R(80,83)                1.0955         estimate D2E/DX2                !
 ! A1    A(2,1,6)              120.3969         estimate D2E/DX2                !
 ! A2    A(2,1,57)             121.4931         estimate D2E/DX2                !
 ! A3    A(6,1,57)             118.1099         estimate D2E/DX2                !
 ! A4    A(1,2,3)              119.8471         estimate D2E/DX2                !
 ! A5    A(1,2,58)             121.565          estimate D2E/DX2                !
 ! A6    A(3,2,58)             118.5879         estimate D2E/DX2                !
 ! A7    A(2,3,4)              120.6677         estimate D2E/DX2                !
 ! A8    A(2,3,14)             118.7568         estimate D2E/DX2                !
 ! A9    A(4,3,14)             120.5755         estimate D2E/DX2                !
 ! A10   A(3,4,5)              119.8433         estimate D2E/DX2                !
 ! A11   A(3,4,7)              120.4313         estimate D2E/DX2                !
 ! A12   A(5,4,7)              119.7254         estimate D2E/DX2                !
 ! A13   A(4,5,6)              118.0882         estimate D2E/DX2                !
 ! A14   A(4,5,10)             120.6012         estimate D2E/DX2                !
 ! A15   A(6,5,10)             121.3105         estimate D2E/DX2                !
 ! A16   A(1,6,5)              121.1557         estimate D2E/DX2                !
 ! A17   A(1,6,13)             118.0699         estimate D2E/DX2                !
 ! A18   A(5,6,13)             120.7744         estimate D2E/DX2                !
 ! A19   A(4,7,8)              119.5311         estimate D2E/DX2                !
 ! A20   A(4,7,16)             119.8943         estimate D2E/DX2                !
 ! A21   A(8,7,16)             120.5744         estimate D2E/DX2                !
 ! A22   A(7,8,9)              122.0083         estimate D2E/DX2                !
 ! A23   A(7,8,21)             124.5475         estimate D2E/DX2                !
 ! A24   A(9,8,21)             113.4441         estimate D2E/DX2                !
 ! A25   A(8,9,10)             117.799          estimate D2E/DX2                !
 ! A26   A(8,9,23)             109.2339         estimate D2E/DX2                !
 ! A27   A(10,9,23)            132.9671         estimate D2E/DX2                !
 ! A28   A(5,10,9)             120.3303         estimate D2E/DX2                !
 ! A29   A(5,10,11)            118.1173         estimate D2E/DX2                !
 ! A30   A(9,10,11)            121.5496         estimate D2E/DX2                !
 ! A31   A(10,11,12)           118.4372         estimate D2E/DX2                !
 ! A32   A(10,11,18)           122.7676         estimate D2E/DX2                !
 ! A33   A(12,11,18)           118.7948         estimate D2E/DX2                !
 ! A34   A(11,12,13)           125.6683         estimate D2E/DX2                !
 ! A35   A(11,12,76)           115.5364         estimate D2E/DX2                !
 ! A36   A(13,12,76)           118.7948         estimate D2E/DX2                !
 ! A37   A(6,13,12)            115.6797         estimate D2E/DX2                !
 ! A38   A(6,13,17)            122.2663         estimate D2E/DX2                !
 ! A39   A(12,13,17)           122.0533         estimate D2E/DX2                !
 ! A40   A(3,14,15)            116.24           estimate D2E/DX2                !
 ! A41   A(3,14,19)            122.0339         estimate D2E/DX2                !
 ! A42   A(15,14,19)           121.7257         estimate D2E/DX2                !
 ! A43   A(14,15,16)           125.31           estimate D2E/DX2                !
 ! A44   A(14,15,72)           118.8764         estimate D2E/DX2                !
 ! A45   A(16,15,72)           115.8123         estimate D2E/DX2                !
 ! A46   A(7,16,15)            117.5435         estimate D2E/DX2                !
 ! A47   A(7,16,20)            121.9395         estimate D2E/DX2                !
 ! A48   A(15,16,20)           120.5168         estimate D2E/DX2                !
 ! A49   A(8,21,22)             90.2983         estimate D2E/DX2                !
 ! A50   A(21,22,23)           113.8946         estimate D2E/DX2                !
 ! A51   A(21,22,24)           131.0951         estimate D2E/DX2                !
 ! A52   A(23,22,24)           114.996          estimate D2E/DX2                !
 ! A53   A(9,23,22)            113.1256         estimate D2E/DX2                !
 ! A54   A(9,23,26)            134.703          estimate D2E/DX2                !
 ! A55   A(22,23,26)           112.1432         estimate D2E/DX2                !
 ! A56   A(22,24,25)           107.9188         estimate D2E/DX2                !
 ! A57   A(22,24,27)           131.4305         estimate D2E/DX2                !
 ! A58   A(25,24,27)           120.6461         estimate D2E/DX2                !
 ! A59   A(24,25,26)           114.9323         estimate D2E/DX2                !
 ! A60   A(24,25,30)           122.3838         estimate D2E/DX2                !
 ! A61   A(26,25,30)           122.6833         estimate D2E/DX2                !
 ! A62   A(23,26,25)            90.001          estimate D2E/DX2                !
 ! A63   A(24,27,28)           116.7248         estimate D2E/DX2                !
 ! A64   A(24,27,56)           123.7518         estimate D2E/DX2                !
 ! A65   A(28,27,56)           119.5209         estimate D2E/DX2                !
 ! A66   A(27,28,29)           121.5956         estimate D2E/DX2                !
 ! A67   A(27,28,31)           130.0238         estimate D2E/DX2                !
 ! A68   A(29,28,31)           108.3787         estimate D2E/DX2                !
 ! A69   A(28,29,30)           121.6145         estimate D2E/DX2                !
 ! A70   A(28,29,33)           114.6277         estimate D2E/DX2                !
 ! A71   A(30,29,33)           123.7577         estimate D2E/DX2                !
 ! A72   A(25,30,29)           117.0269         estimate D2E/DX2                !
 ! A73   A(25,30,55)           121.1087         estimate D2E/DX2                !
 ! A74   A(29,30,55)           121.8643         estimate D2E/DX2                !
 ! A75   A(28,31,32)           114.9471         estimate D2E/DX2                !
 ! A76   A(28,31,34)           130.81           estimate D2E/DX2                !
 ! A77   A(32,31,34)           114.2427         estimate D2E/DX2                !
 ! A78   A(31,32,33)           111.9256         estimate D2E/DX2                !
 ! A79   A(31,32,35)           112.8736         estimate D2E/DX2                !
 ! A80   A(33,32,35)           135.1984         estimate D2E/DX2                !
 ! A81   A(29,33,32)            90.1137         estimate D2E/DX2                !
 ! A82   A(31,34,36)            90.0985         estimate D2E/DX2                !
 ! A83   A(32,35,36)           109.3836         estimate D2E/DX2                !
 ! A84   A(32,35,40)           132.7107         estimate D2E/DX2                !
 ! A85   A(36,35,40)           117.9053         estimate D2E/DX2                !
 ! A86   A(34,36,35)           113.4011         estimate D2E/DX2                !
 ! A87   A(34,36,37)           124.7034         estimate D2E/DX2                !
 ! A88   A(35,36,37)           121.8954         estimate D2E/DX2                !
 ! A89   A(36,37,38)           119.4599         estimate D2E/DX2                !
 ! A90   A(36,37,48)           120.3576         estimate D2E/DX2                !
 ! A91   A(38,37,48)           120.1825         estimate D2E/DX2                !
 ! A92   A(37,38,39)           119.8267         estimate D2E/DX2                !
 ! A93   A(37,38,41)           120.4825         estimate D2E/DX2                !
 ! A94   A(39,38,41)           119.6907         estimate D2E/DX2                !
 ! A95   A(38,39,40)           120.5787         estimate D2E/DX2                !
 ! A96   A(38,39,44)           118.202          estimate D2E/DX2                !
 ! A97   A(40,39,44)           121.2193         estimate D2E/DX2                !
 ! A98   A(35,40,39)           120.3328         estimate D2E/DX2                !
 ! A99   A(35,40,47)           121.4464         estimate D2E/DX2                !
 ! A100  A(39,40,47)           118.2208         estimate D2E/DX2                !
 ! A101  A(38,41,42)           120.7654         estimate D2E/DX2                !
 ! A102  A(38,41,50)           120.1685         estimate D2E/DX2                !
 ! A103  A(42,41,50)           119.0661         estimate D2E/DX2                !
 ! A104  A(41,42,43)           119.8275         estimate D2E/DX2                !
 ! A105  A(41,42,59)           118.6578         estimate D2E/DX2                !
 ! A106  A(43,42,59)           121.5146         estimate D2E/DX2                !
 ! A107  A(42,43,44)           120.3905         estimate D2E/DX2                !
 ! A108  A(42,43,60)           121.4393         estimate D2E/DX2                !
 ! A109  A(44,43,60)           118.1702         estimate D2E/DX2                !
 ! A110  A(39,44,43)           121.1236         estimate D2E/DX2                !
 ! A111  A(39,44,45)           120.7877         estimate D2E/DX2                !
 ! A112  A(43,44,45)           118.0886         estimate D2E/DX2                !
 ! A113  A(44,45,46)           115.6976         estimate D2E/DX2                !
 ! A114  A(44,45,52)           122.3204         estimate D2E/DX2                !
 ! A115  A(46,45,52)           121.982          estimate D2E/DX2                !
 ! A116  A(45,46,47)           125.6139         estimate D2E/DX2                !
 ! A117  A(45,46,64)           118.8644         estimate D2E/DX2                !
 ! A118  A(47,46,64)           115.521          estimate D2E/DX2                !
 ! A119  A(40,47,46)           118.4583         estimate D2E/DX2                !
 ! A120  A(40,47,51)           122.7127         estimate D2E/DX2                !
 ! A121  A(46,47,51)           118.8289         estimate D2E/DX2                !
 ! A122  A(37,48,49)           117.0349         estimate D2E/DX2                !
 ! A123  A(37,48,53)           121.3064         estimate D2E/DX2                !
 ! A124  A(49,48,53)           121.6585         estimate D2E/DX2                !
 ! A125  A(48,49,50)           125.3389         estimate D2E/DX2                !
 ! A126  A(48,49,68)           118.9613         estimate D2E/DX2                !
 ! A127  A(50,49,68)           115.6988         estimate D2E/DX2                !
 ! A128  A(41,50,49)           116.7898         estimate D2E/DX2                !
 ! A129  A(41,50,54)           122.7723         estimate D2E/DX2                !
 ! A130  A(49,50,54)           120.4378         estimate D2E/DX2                !
 ! A131  A(30,55,80)           114.3198         estimate D2E/DX2                !
 ! A132  A(27,56,61)           113.0381         estimate D2E/DX2                !
 ! A133  A(27,56,62)           110.3706         estimate D2E/DX2                !
 ! A134  A(27,56,63)           110.9585         estimate D2E/DX2                !
 ! A135  A(61,56,62)           107.2158         estimate D2E/DX2                !
 ! A136  A(61,56,63)           107.5944         estimate D2E/DX2                !
 ! A137  A(62,56,63)           107.4218         estimate D2E/DX2                !
 ! A138  A(46,64,65)           109.7389         estimate D2E/DX2                !
 ! A139  A(46,64,66)           109.5141         estimate D2E/DX2                !
 ! A140  A(46,64,67)           108.0382         estimate D2E/DX2                !
 ! A141  A(65,64,66)           107.9833         estimate D2E/DX2                !
 ! A142  A(65,64,67)           110.6894         estimate D2E/DX2                !
 ! A143  A(66,64,67)           110.8708         estimate D2E/DX2                !
 ! A144  A(49,68,69)           109.2938         estimate D2E/DX2                !
 ! A145  A(49,68,70)           109.7061         estimate D2E/DX2                !
 ! A146  A(49,68,71)           108.3144         estimate D2E/DX2                !
 ! A147  A(69,68,70)           108.0384         estimate D2E/DX2                !
 ! A148  A(69,68,71)           110.9069         estimate D2E/DX2                !
 ! A149  A(70,68,71)           110.5691         estimate D2E/DX2                !
 ! A150  A(15,72,73)           109.3788         estimate D2E/DX2                !
 ! A151  A(15,72,74)           109.9272         estimate D2E/DX2                !
 ! A152  A(15,72,75)           107.97           estimate D2E/DX2                !
 ! A153  A(73,72,74)           108.1254         estimate D2E/DX2                !
 ! A154  A(73,72,75)           111.0572         estimate D2E/DX2                !
 ! A155  A(74,72,75)           110.3779         estimate D2E/DX2                !
 ! A156  A(12,76,77)           109.6129         estimate D2E/DX2                !
 ! A157  A(12,76,78)           109.6455         estimate D2E/DX2                !
 ! A158  A(12,76,79)           107.9955         estimate D2E/DX2                !
 ! A159  A(77,76,78)           107.9249         estimate D2E/DX2                !
 ! A160  A(77,76,79)           110.8839         estimate D2E/DX2                !
 ! A161  A(78,76,79)           110.7722         estimate D2E/DX2                !
 ! A162  A(55,80,81)           110.8383         estimate D2E/DX2                !
 ! A163  A(55,80,82)           110.6163         estimate D2E/DX2                !
 ! A164  A(55,80,83)           106.8456         estimate D2E/DX2                !
 ! A165  A(81,80,82)           109.4986         estimate D2E/DX2                !
 ! A166  A(81,80,83)           109.4267         estimate D2E/DX2                !
 ! A167  A(82,80,83)           109.5697         estimate D2E/DX2                !
 ! D1    D(6,1,2,3)              0.1516         estimate D2E/DX2                !
 ! D2    D(6,1,2,58)          -179.9516         estimate D2E/DX2                !
 ! D3    D(57,1,2,3)          -179.7467         estimate D2E/DX2                !
 ! D4    D(57,1,2,58)            0.1501         estimate D2E/DX2                !
 ! D5    D(2,1,6,5)             -0.3525         estimate D2E/DX2                !
 ! D6    D(2,1,6,13)           179.5787         estimate D2E/DX2                !
 ! D7    D(57,1,6,5)           179.5492         estimate D2E/DX2                !
 ! D8    D(57,1,6,13)           -0.5196         estimate D2E/DX2                !
 ! D9    D(1,2,3,4)              0.1416         estimate D2E/DX2                !
 ! D10   D(1,2,3,14)          -179.8092         estimate D2E/DX2                !
 ! D11   D(58,2,3,4)          -179.7583         estimate D2E/DX2                !
 ! D12   D(58,2,3,14)            0.2909         estimate D2E/DX2                !
 ! D13   D(2,3,4,5)             -0.2346         estimate D2E/DX2                !
 ! D14   D(2,3,4,7)            179.823          estimate D2E/DX2                !
 ! D15   D(14,3,4,5)           179.7153         estimate D2E/DX2                !
 ! D16   D(14,3,4,7)            -0.2271         estimate D2E/DX2                !
 ! D17   D(2,3,14,15)          179.7199         estimate D2E/DX2                !
 ! D18   D(2,3,14,19)           -0.055          estimate D2E/DX2                !
 ! D19   D(4,3,14,15)           -0.2309         estimate D2E/DX2                !
 ! D20   D(4,3,14,19)          179.9942         estimate D2E/DX2                !
 ! D21   D(3,4,5,6)              0.0385         estimate D2E/DX2                !
 ! D22   D(3,4,5,10)           179.9632         estimate D2E/DX2                !
 ! D23   D(7,4,5,6)            179.9813         estimate D2E/DX2                !
 ! D24   D(7,4,5,10)            -0.094          estimate D2E/DX2                !
 ! D25   D(3,4,7,8)           -179.6614         estimate D2E/DX2                !
 ! D26   D(3,4,7,16)             0.1738         estimate D2E/DX2                !
 ! D27   D(5,4,7,8)              0.3961         estimate D2E/DX2                !
 ! D28   D(5,4,7,16)          -179.7687         estimate D2E/DX2                !
 ! D29   D(4,5,6,1)              0.2534         estimate D2E/DX2                !
 ! D30   D(4,5,6,13)          -179.6759         estimate D2E/DX2                !
 ! D31   D(10,5,6,1)          -179.6707         estimate D2E/DX2                !
 ! D32   D(10,5,6,13)            0.3999         estimate D2E/DX2                !
 ! D33   D(4,5,10,9)            -0.5202         estimate D2E/DX2                !
 ! D34   D(4,5,10,11)          178.877          estimate D2E/DX2                !
 ! D35   D(6,5,10,9)           179.4021         estimate D2E/DX2                !
 ! D36   D(6,5,10,11)           -1.2008         estimate D2E/DX2                !
 ! D37   D(1,6,13,12)         -179.5387         estimate D2E/DX2                !
 ! D38   D(1,6,13,17)            0.1623         estimate D2E/DX2                !
 ! D39   D(5,6,13,12)            0.3928         estimate D2E/DX2                !
 ! D40   D(5,6,13,17)         -179.9062         estimate D2E/DX2                !
 ! D41   D(4,7,8,9)             -0.0992         estimate D2E/DX2                !
 ! D42   D(4,7,8,21)           179.9282         estimate D2E/DX2                !
 ! D43   D(16,7,8,9)          -179.9332         estimate D2E/DX2                !
 ! D44   D(16,7,8,21)            0.0941         estimate D2E/DX2                !
 ! D45   D(4,7,16,15)            0.3402         estimate D2E/DX2                !
 ! D46   D(4,7,16,20)         -179.8182         estimate D2E/DX2                !
 ! D47   D(8,7,16,15)         -179.8263         estimate D2E/DX2                !
 ! D48   D(8,7,16,20)            0.0153         estimate D2E/DX2                !
 ! D49   D(7,8,9,10)            -0.4984         estimate D2E/DX2                !
 ! D50   D(7,8,9,23)           179.4862         estimate D2E/DX2                !
 ! D51   D(21,8,9,10)          179.4771         estimate D2E/DX2                !
 ! D52   D(21,8,9,23)           -0.5383         estimate D2E/DX2                !
 ! D53   D(7,8,21,22)         -179.7867         estimate D2E/DX2                !
 ! D54   D(9,8,21,22)            0.2385         estimate D2E/DX2                !
 ! D55   D(8,9,10,5)             0.7957         estimate D2E/DX2                !
 ! D56   D(8,9,10,11)         -178.5804         estimate D2E/DX2                !
 ! D57   D(23,9,10,5)         -179.1844         estimate D2E/DX2                !
 ! D58   D(23,9,10,11)           1.4395         estimate D2E/DX2                !
 ! D59   D(8,9,23,22)            0.6461         estimate D2E/DX2                !
 ! D60   D(8,9,23,26)         -177.2126         estimate D2E/DX2                !
 ! D61   D(10,9,23,22)        -179.3725         estimate D2E/DX2                !
 ! D62   D(10,9,23,26)           2.7688         estimate D2E/DX2                !
 ! D63   D(5,10,11,12)           1.2265         estimate D2E/DX2                !
 ! D64   D(5,10,11,18)        -178.5072         estimate D2E/DX2                !
 ! D65   D(9,10,11,12)        -179.3841         estimate D2E/DX2                !
 ! D66   D(9,10,11,18)           0.8822         estimate D2E/DX2                !
 ! D67   D(10,11,12,13)         -0.4546         estimate D2E/DX2                !
 ! D68   D(10,11,12,76)        179.8033         estimate D2E/DX2                !
 ! D69   D(18,11,12,13)        179.2898         estimate D2E/DX2                !
 ! D70   D(18,11,12,76)         -0.4523         estimate D2E/DX2                !
 ! D71   D(11,12,13,6)          -0.3485         estimate D2E/DX2                !
 ! D72   D(11,12,13,17)        179.9499         estimate D2E/DX2                !
 ! D73   D(76,12,13,6)         179.386          estimate D2E/DX2                !
 ! D74   D(76,12,13,17)         -0.3157         estimate D2E/DX2                !
 ! D75   D(11,12,76,77)        -58.9989         estimate D2E/DX2                !
 ! D76   D(11,12,76,78)         59.3036         estimate D2E/DX2                !
 ! D77   D(11,12,76,79)       -179.9059         estimate D2E/DX2                !
 ! D78   D(13,12,76,77)        121.2402         estimate D2E/DX2                !
 ! D79   D(13,12,76,78)       -120.4573         estimate D2E/DX2                !
 ! D80   D(13,12,76,79)          0.3332         estimate D2E/DX2                !
 ! D81   D(3,14,15,16)           0.8084         estimate D2E/DX2                !
 ! D82   D(3,14,15,72)        -179.6323         estimate D2E/DX2                !
 ! D83   D(19,14,15,16)       -179.416          estimate D2E/DX2                !
 ! D84   D(19,14,15,72)          0.1434         estimate D2E/DX2                !
 ! D85   D(14,15,16,7)          -0.868          estimate D2E/DX2                !
 ! D86   D(14,15,16,20)        179.2881         estimate D2E/DX2                !
 ! D87   D(72,15,16,7)         179.5606         estimate D2E/DX2                !
 ! D88   D(72,15,16,20)         -0.2833         estimate D2E/DX2                !
 ! D89   D(14,15,72,73)        126.0234         estimate D2E/DX2                !
 ! D90   D(14,15,72,74)       -115.4021         estimate D2E/DX2                !
 ! D91   D(14,15,72,75)          5.0597         estimate D2E/DX2                !
 ! D92   D(16,15,72,73)        -54.376          estimate D2E/DX2                !
 ! D93   D(16,15,72,74)         64.1984         estimate D2E/DX2                !
 ! D94   D(16,15,72,75)       -175.3397         estimate D2E/DX2                !
 ! D95   D(8,21,22,23)           0.1462         estimate D2E/DX2                !
 ! D96   D(8,21,22,24)         178.6724         estimate D2E/DX2                !
 ! D97   D(21,22,23,9)          -0.4932         estimate D2E/DX2                !
 ! D98   D(21,22,23,26)        177.8638         estimate D2E/DX2                !
 ! D99   D(24,22,23,9)        -179.2677         estimate D2E/DX2                !
 ! D100  D(24,22,23,26)         -0.9107         estimate D2E/DX2                !
 ! D101  D(21,22,24,25)       -177.4946         estimate D2E/DX2                !
 ! D102  D(21,22,24,27)          3.2987         estimate D2E/DX2                !
 ! D103  D(23,22,24,25)          1.0186         estimate D2E/DX2                !
 ! D104  D(23,22,24,27)       -178.1881         estimate D2E/DX2                !
 ! D105  D(9,23,26,25)         178.2735         estimate D2E/DX2                !
 ! D106  D(22,23,26,25)          0.3995         estimate D2E/DX2                !
 ! D107  D(22,24,25,26)         -0.702          estimate D2E/DX2                !
 ! D108  D(22,24,25,30)        179.5739         estimate D2E/DX2                !
 ! D109  D(27,24,25,26)        178.6066         estimate D2E/DX2                !
 ! D110  D(27,24,25,30)         -1.1175         estimate D2E/DX2                !
 ! D111  D(22,24,27,28)        179.9818         estimate D2E/DX2                !
 ! D112  D(22,24,27,56)          0.5544         estimate D2E/DX2                !
 ! D113  D(25,24,27,28)          0.8593         estimate D2E/DX2                !
 ! D114  D(25,24,27,56)       -178.5681         estimate D2E/DX2                !
 ! D115  D(24,25,26,23)          0.1991         estimate D2E/DX2                !
 ! D116  D(30,25,26,23)        179.9223         estimate D2E/DX2                !
 ! D117  D(24,25,30,29)          0.5769         estimate D2E/DX2                !
 ! D118  D(24,25,30,55)       -179.5094         estimate D2E/DX2                !
 ! D119  D(26,25,30,29)       -179.1259         estimate D2E/DX2                !
 ! D120  D(26,25,30,55)          0.7879         estimate D2E/DX2                !
 ! D121  D(24,27,28,29)         -0.1528         estimate D2E/DX2                !
 ! D122  D(24,27,28,31)       -179.5768         estimate D2E/DX2                !
 ! D123  D(56,27,28,29)        179.3001         estimate D2E/DX2                !
 ! D124  D(56,27,28,31)         -0.1239         estimate D2E/DX2                !
 ! D125  D(24,27,56,61)          2.9821         estimate D2E/DX2                !
 ! D126  D(24,27,56,62)        123.0471         estimate D2E/DX2                !
 ! D127  D(24,27,56,63)       -117.9909         estimate D2E/DX2                !
 ! D128  D(28,27,56,61)       -176.4301         estimate D2E/DX2                !
 ! D129  D(28,27,56,62)        -56.3652         estimate D2E/DX2                !
 ! D130  D(28,27,56,63)         62.5969         estimate D2E/DX2                !
 ! D131  D(27,28,29,30)         -0.365          estimate D2E/DX2                !
 ! D132  D(27,28,29,33)        179.7205         estimate D2E/DX2                !
 ! D133  D(31,28,29,30)        179.1703         estimate D2E/DX2                !
 ! D134  D(31,28,29,33)         -0.7442         estimate D2E/DX2                !
 ! D135  D(27,28,31,32)        179.7055         estimate D2E/DX2                !
 ! D136  D(27,28,31,34)         -0.1222         estimate D2E/DX2                !
 ! D137  D(29,28,31,32)          0.2224         estimate D2E/DX2                !
 ! D138  D(29,28,31,34)       -179.6052         estimate D2E/DX2                !
 ! D139  D(28,29,30,25)          0.151          estimate D2E/DX2                !
 ! D140  D(28,29,30,55)       -179.7621         estimate D2E/DX2                !
 ! D141  D(33,29,30,25)       -179.9425         estimate D2E/DX2                !
 ! D142  D(33,29,30,55)          0.1445         estimate D2E/DX2                !
 ! D143  D(28,29,33,32)          0.8228         estimate D2E/DX2                !
 ! D144  D(30,29,33,32)       -179.0896         estimate D2E/DX2                !
 ! D145  D(25,30,55,80)        -94.0324         estimate D2E/DX2                !
 ! D146  D(29,30,55,80)         85.8772         estimate D2E/DX2                !
 ! D147  D(28,31,32,33)          0.3762         estimate D2E/DX2                !
 ! D148  D(28,31,32,35)        179.9049         estimate D2E/DX2                !
 ! D149  D(34,31,32,33)       -179.7669         estimate D2E/DX2                !
 ! D150  D(34,31,32,35)         -0.2382         estimate D2E/DX2                !
 ! D151  D(28,31,34,36)        179.9412         estimate D2E/DX2                !
 ! D152  D(32,31,34,36)          0.1126         estimate D2E/DX2                !
 ! D153  D(31,32,33,29)         -0.666          estimate D2E/DX2                !
 ! D154  D(35,32,33,29)        179.9502         estimate D2E/DX2                !
 ! D155  D(31,32,35,36)          0.2585         estimate D2E/DX2                !
 ! D156  D(31,32,35,40)       -179.5038         estimate D2E/DX2                !
 ! D157  D(33,32,35,36)        179.638          estimate D2E/DX2                !
 ! D158  D(33,32,35,40)         -0.1242         estimate D2E/DX2                !
 ! D159  D(31,34,36,35)          0.0422         estimate D2E/DX2                !
 ! D160  D(31,34,36,37)        179.9243         estimate D2E/DX2                !
 ! D161  D(32,35,36,34)         -0.1756         estimate D2E/DX2                !
 ! D162  D(32,35,36,37)        179.9386         estimate D2E/DX2                !
 ! D163  D(40,35,36,34)        179.6267         estimate D2E/DX2                !
 ! D164  D(40,35,36,37)         -0.259          estimate D2E/DX2                !
 ! D165  D(32,35,40,39)        179.6957         estimate D2E/DX2                !
 ! D166  D(32,35,40,47)         -0.3569         estimate D2E/DX2                !
 ! D167  D(36,35,40,39)         -0.0505         estimate D2E/DX2                !
 ! D168  D(36,35,40,47)        179.8969         estimate D2E/DX2                !
 ! D169  D(34,36,37,38)       -179.4841         estimate D2E/DX2                !
 ! D170  D(34,36,37,48)          0.4742         estimate D2E/DX2                !
 ! D171  D(35,36,37,38)          0.3884         estimate D2E/DX2                !
 ! D172  D(35,36,37,48)       -179.6533         estimate D2E/DX2                !
 ! D173  D(36,37,38,39)         -0.2079         estimate D2E/DX2                !
 ! D174  D(36,37,38,41)        179.7615         estimate D2E/DX2                !
 ! D175  D(48,37,38,39)        179.8337         estimate D2E/DX2                !
 ! D176  D(48,37,38,41)         -0.1969         estimate D2E/DX2                !
 ! D177  D(36,37,48,49)        179.9581         estimate D2E/DX2                !
 ! D178  D(36,37,48,53)          0.0914         estimate D2E/DX2                !
 ! D179  D(38,37,48,49)         -0.0839         estimate D2E/DX2                !
 ! D180  D(38,37,48,53)       -179.9506         estimate D2E/DX2                !
 ! D181  D(37,38,39,40)         -0.0954         estimate D2E/DX2                !
 ! D182  D(37,38,39,44)        179.8205         estimate D2E/DX2                !
 ! D183  D(41,38,39,40)        179.9349         estimate D2E/DX2                !
 ! D184  D(41,38,39,44)         -0.1491         estimate D2E/DX2                !
 ! D185  D(37,38,41,42)       -179.9121         estimate D2E/DX2                !
 ! D186  D(37,38,41,50)          0.0661         estimate D2E/DX2                !
 ! D187  D(39,38,41,42)          0.0574         estimate D2E/DX2                !
 ! D188  D(39,38,41,50)       -179.9644         estimate D2E/DX2                !
 ! D189  D(38,39,40,35)          0.2234         estimate D2E/DX2                !
 ! D190  D(38,39,40,47)       -179.7256         estimate D2E/DX2                !
 ! D191  D(44,39,40,35)       -179.69           estimate D2E/DX2                !
 ! D192  D(44,39,40,47)          0.361          estimate D2E/DX2                !
 ! D193  D(38,39,44,43)          0.118          estimate D2E/DX2                !
 ! D194  D(38,39,44,45)       -179.8896         estimate D2E/DX2                !
 ! D195  D(40,39,44,43)       -179.9666         estimate D2E/DX2                !
 ! D196  D(40,39,44,45)          0.0258         estimate D2E/DX2                !
 ! D197  D(35,40,47,46)        179.491          estimate D2E/DX2                !
 ! D198  D(35,40,47,51)         -0.529          estimate D2E/DX2                !
 ! D199  D(39,40,47,46)         -0.5606         estimate D2E/DX2                !
 ! D200  D(39,40,47,51)        179.4195         estimate D2E/DX2                !
 ! D201  D(38,41,42,43)          0.0703         estimate D2E/DX2                !
 ! D202  D(38,41,42,59)       -179.8092         estimate D2E/DX2                !
 ! D203  D(50,41,42,43)       -179.9082         estimate D2E/DX2                !
 ! D204  D(50,41,42,59)          0.2123         estimate D2E/DX2                !
 ! D205  D(38,41,50,49)          0.3415         estimate D2E/DX2                !
 ! D206  D(38,41,50,54)       -179.77           estimate D2E/DX2                !
 ! D207  D(42,41,50,49)       -179.6798         estimate D2E/DX2                !
 ! D208  D(42,41,50,54)          0.2086         estimate D2E/DX2                !
 ! D209  D(41,42,43,44)         -0.1035         estimate D2E/DX2                !
 ! D210  D(41,42,43,60)        179.8951         estimate D2E/DX2                !
 ! D211  D(59,42,43,44)        179.7725         estimate D2E/DX2                !
 ! D212  D(59,42,43,60)         -0.2289         estimate D2E/DX2                !
 ! D213  D(42,43,44,39)          0.0076         estimate D2E/DX2                !
 ! D214  D(42,43,44,45)       -179.985          estimate D2E/DX2                !
 ! D215  D(60,43,44,39)       -179.9911         estimate D2E/DX2                !
 ! D216  D(60,43,44,45)          0.0163         estimate D2E/DX2                !
 ! D217  D(39,44,45,46)         -0.215          estimate D2E/DX2                !
 ! D218  D(39,44,45,52)        179.7799         estimate D2E/DX2                !
 ! D219  D(43,44,45,46)        179.7777         estimate D2E/DX2                !
 ! D220  D(43,44,45,52)         -0.2274         estimate D2E/DX2                !
 ! D221  D(44,45,46,47)         -0.0043         estimate D2E/DX2                !
 ! D222  D(44,45,46,64)       -179.6927         estimate D2E/DX2                !
 ! D223  D(52,45,46,47)       -179.9993         estimate D2E/DX2                !
 ! D224  D(52,45,46,64)          0.3123         estimate D2E/DX2                !
 ! D225  D(45,46,47,40)          0.3905         estimate D2E/DX2                !
 ! D226  D(45,46,47,51)       -179.5903         estimate D2E/DX2                !
 ! D227  D(64,46,47,40)       -179.9119         estimate D2E/DX2                !
 ! D228  D(64,46,47,51)          0.1073         estimate D2E/DX2                !
 ! D229  D(45,46,64,65)        119.0015         estimate D2E/DX2                !
 ! D230  D(45,46,64,66)       -122.6283         estimate D2E/DX2                !
 ! D231  D(45,46,64,67)         -1.7697         estimate D2E/DX2                !
 ! D232  D(47,46,64,65)        -60.7178         estimate D2E/DX2                !
 ! D233  D(47,46,64,66)         57.6524         estimate D2E/DX2                !
 ! D234  D(47,46,64,67)        178.511          estimate D2E/DX2                !
 ! D235  D(37,48,49,50)          0.5436         estimate D2E/DX2                !
 ! D236  D(37,48,49,68)       -179.8493         estimate D2E/DX2                !
 ! D237  D(53,48,49,50)       -179.5902         estimate D2E/DX2                !
 ! D238  D(53,48,49,68)          0.0169         estimate D2E/DX2                !
 ! D239  D(48,49,50,41)         -0.6679         estimate D2E/DX2                !
 ! D240  D(48,49,50,54)        179.4409         estimate D2E/DX2                !
 ! D241  D(68,49,50,41)        179.7136         estimate D2E/DX2                !
 ! D242  D(68,49,50,54)         -0.1776         estimate D2E/DX2                !
 ! D243  D(48,49,68,69)        123.3458         estimate D2E/DX2                !
 ! D244  D(48,49,68,70)       -118.368          estimate D2E/DX2                !
 ! D245  D(48,49,68,71)          2.4064         estimate D2E/DX2                !
 ! D246  D(50,49,68,69)        -57.0099         estimate D2E/DX2                !
 ! D247  D(50,49,68,70)         61.2763         estimate D2E/DX2                !
 ! D248  D(50,49,68,71)       -177.9493         estimate D2E/DX2                !
 ! D249  D(30,55,80,81)        -59.9916         estimate D2E/DX2                !
 ! D250  D(30,55,80,82)         61.6615         estimate D2E/DX2                !
 ! D251  D(30,55,80,83)       -179.1408         estimate D2E/DX2                !
 --------------------------------------------------------------------------------
 Trust Radius=3.00D-01 FncErr=1.00D-07 GrdErr=1.00D-06 EigMax=2.50D+02 EigMin=1.00D-04
 Number of steps in this run=    498 maximum allowed number of steps=    498.
 GradGradGradGradGradGradGradGradGradGradGradGradGradGradGradGradGradGrad

 Leave Link  103 at Tue Oct  8 09:45:35 2024, MaxMem=  1342177280 cpu:               1.2 elap:               0.1
 (Enter /share/apps/g16A03/l202.exe)
 Stoichiometry    C44H22N4O9S4
 Framework group  C1[X(C44H22N4O9S4)]
 Deg. of freedom   243
 Full point group                 C1      NOp   1
 Largest Abelian subgroup         C1      NOp   1
 Largest concise Abelian subgroup C1      NOp   1
                         Standard orientation:                         
 ---------------------------------------------------------------------
 Center     Atomic      Atomic             Coordinates (Angstroms)
 Number     Number       Type             X           Y           Z
 ---------------------------------------------------------------------
      1          6           0       -9.757503   -0.210487   -0.035293
      2          6           0       -9.714373    1.197179   -0.056998
      3          6           0       -8.497833    1.846650   -0.056551
      4          6           0       -7.286062    1.111817   -0.037442
      5          6           0       -7.320652   -0.306339   -0.013509
      6          6           0       -8.589574   -0.944347   -0.010420
      7          6           0       -6.044995    1.780907   -0.040831
      8          6           0       -4.871827    1.043950   -0.029043
      9          6           0       -4.875135   -0.405361   -0.011061
     10          6           0       -6.118631   -1.057195    0.005036
     11          6           0       -6.219323   -2.540800    0.055487
     12          7           0       -7.486234   -3.120083    0.055798
     13          6           0       -8.695630   -2.428941    0.021442
     14          6           0       -8.480570    3.337955   -0.075441
     15          7           0       -7.219524    3.941708   -0.067961
     16          6           0       -6.004442    3.265205   -0.060654
     17          8           0       -9.759544   -2.999083    0.023138
     18          8           0       -5.248728   -3.261910    0.100845
     19          8           0       -9.495890    3.989570   -0.092015
     20          8           0       -4.959672    3.877510   -0.067428
     21         16           0       -3.273555    1.732719   -0.033312
     22          6           0       -2.574584    0.133816   -0.018857
     23          6           0       -3.508607   -0.885732   -0.014289
     24          6           0       -1.197185   -0.300410   -0.038928
     25          6           0       -1.187023   -1.725961   -0.072985
     26         16           0       -2.757807   -2.470481   -0.060333
     27          6           0        0.008653    0.425346   -0.015516
     28          6           0        1.199971   -0.324822   -0.046359
     29          6           0        1.184495   -1.745170   -0.095336
     30          6           0       -0.007987   -2.461465   -0.107571
     31          6           0        2.571594    0.113920   -0.025806
     32          6           0        3.509297   -0.901531   -0.061926
     33         16           0        2.757147   -2.486032   -0.135155
     34         16           0        3.254833    1.717913    0.041250
     35          6           0        4.870761   -0.411011   -0.041642
     36          6           0        4.859479    1.038618    0.018176
     37          6           0        6.030953    1.779681    0.050055
     38          6           0        7.274141    1.113987    0.015619
     39          6           0        7.314454   -0.303091   -0.046630
     40          6           0        6.116158   -1.057492   -0.072561
     41          6           0        8.485005    1.850300    0.042086
     42          6           0        9.703450    1.205649    0.006854
     43          6           0        9.750433   -0.200938   -0.057699
     44          6           0        8.584754   -0.937490   -0.083734
     45          6           0        8.694155   -2.421082   -0.151868
     46          7           0        7.486674   -3.115605   -0.170849
     47          6           0        6.219563   -2.539958   -0.131762
     48          6           0        5.979455    3.265289    0.119091
     49          7           0        7.197419    3.940273    0.148713
     50          6           0        8.455114    3.337781    0.108169
     51          8           0        5.249525   -3.263027   -0.146893
     52          8           0        9.758507   -2.988518   -0.188508
     53          8           0        4.924327    3.857150    0.150456
     54          8           0        9.456670    4.011141    0.128835
     55          8           0       -0.028654   -3.818988   -0.149527
     56          6           0        0.079474    1.926078    0.052002
     57          1           0      -10.704307   -0.751547   -0.039194
     58          1           0      -10.625536    1.795961   -0.076032
     59          1           0       10.613614    1.805856    0.032025
     60          1           0       10.699210   -0.737515   -0.088420
     61          1           0       -0.903977    2.397763    0.133575
     62          1           0        0.666386    2.242941    0.927584
     63          1           0        0.572886    2.337694   -0.842110
     64          6           0        7.513410   -4.574903   -0.230170
     65          1           0        7.026439   -4.990961    0.660651
     66          1           0        6.956340   -4.915964   -1.110965
     67          1           0        8.557210   -4.892178   -0.283036
     68          6           0        7.195978    5.398945    0.219793
     69          1           0        7.766904    5.719421    1.099574
     70          1           0        7.684031    5.813320   -0.671440
     71          1           0        6.159846    5.738450    0.282700
     72          6           0       -7.135599    5.399008   -0.077405
     73          1           0       -6.515240    5.733116    0.762533
     74          1           0       -6.663477    5.740555   -1.007718
     75          1           0       -8.150209    5.795489    0.002021
     76          6           0       -7.511144   -4.579528    0.102072
     77          1           0       -6.972656   -4.984591   -0.763462
     78          1           0       -7.002887   -4.928501    1.009493
     79          1           0       -8.555390   -4.899558    0.095590
     80          6           0        0.066308   -4.445062    1.121968
     81          1           0        1.005368   -4.166899    1.626654
     82          1           0       -0.789361   -4.165212    1.757043
     83          1           0        0.054023   -5.526130    0.945234
 ---------------------------------------------------------------------
 Rotational constants (GHZ):           0.0790631           0.0144891           0.0122672
 Leave Link  202 at Tue Oct  8 09:45:35 2024, MaxMem=  1342177280 cpu:               1.3 elap:               0.1
 (Enter /share/apps/g16A03/l301.exe)
 Standard basis: def2SVP (5D, 7F)
 Ernie: Thresh=  0.10000D-02 Tol=  0.10000D-05 Strict=F.
 There are  1041 symmetry adapted cartesian basis functions of A   symmetry.
 There are   980 symmetry adapted basis functions of A   symmetry.
   980 basis functions,  1727 primitive gaussians,  1041 cartesian basis functions
   225 alpha electrons      225 beta electrons
       nuclear repulsion energy      9109.6864350956 Hartrees.
 IExCor= 4336 DFT=T Ex+Corr=M062X ExCW=0 ScaHFX=  0.540000
 ScaDFX=  1.000000  1.000000  1.000000  1.000000 ScalE2=  1.000000  1.000000
 IRadAn=      5 IRanWt=     -1 IRanGd=            0 ICorTp=0 IEmpDi=131
 NAtoms=   83 NActive=   83 NUniq=   83 SFac= 1.00D+00 NAtFMM=   60 NAOKFM=T Big=T
 Integral buffers will be    131072 words long.
 Raffenetti 2 integral format.
 Two-electron integral symmetry is turned on.
 R6Disp:  Grimme-D3 Dispersion energy=       -0.0077498025 Hartrees.
 Nuclear repulsion after empirical dispersion term =     9109.6786852930 Hartrees.
 ------------------------------------------------------------------------------
 Polarizable Continuum Model (PCM)
 =================================
 Model                : PCM.
 Atomic radii         : UFF (Universal Force Field).
 Polarization charges : Total charges.
 Charge compensation  : None.
 Solution method      : On-the-fly selection.
 Cavity type          : Scaled VdW (van der Waals Surface) (Alpha=1.100).
 Cavity algorithm     : GePol (No added spheres)
                        Default sphere list used, NSphG=   83.
                        Lebedev-Laikov grids with approx.  5.0 points / Ang**2.
                        Smoothing algorithm: York/Karplus (Gamma=1.0000).
                        Polarization charges: spherical gaussians, with
                                              point-specific exponents (IZeta= 3).
                        Self-potential: point-specific (ISelfS= 7).
                        Self-field    : sphere-specific E.n sum rule (ISelfD= 2).
 1st derivatives      : Analytical E(r).r(x)/FMM algorithm (CHGder, D1EAlg=3).
                        Cavity 1st derivative terms included.
 Solvent              : Chloroform, Eps=   4.711300 Eps(inf)=   2.090627
 ------------------------------------------------------------------------------
 GePol: Number of generator spheres                  =      83
 GePol: Total number of spheres                      =      83
 GePol: Number of exposed spheres                    =      83 (100.00%)
 GePol: Number of points                             =    6272
 GePol: Average weight of points                     =       0.12
 GePol: Minimum weight of points                     =   0.65D-10
 GePol: Maximum weight of points                     =    0.20577
 GePol: Number of points with low weight             =     353
 GePol: Fraction of low-weight points (<1% of avg)   =       5.63%
 GePol: Cavity surface area                          =    773.242 Ang**2
 GePol: Cavity volume                                =    958.054 Ang**3
 Leave Link  301 at Tue Oct  8 09:45:35 2024, MaxMem=  1342177280 cpu:               3.5 elap:               0.1
 (Enter /share/apps/g16A03/l302.exe)
 NPDir=0 NMtPBC=     1 NCelOv=     1 NCel=       1 NClECP=     1 NCelD=      1
         NCelK=      1 NCelE2=     1 NClLst=     1 CellRange=     0.0.
 One-electron integrals computed using PRISM.
 One-electron integral symmetry used in STVInt
   1 Symmetry operations used in ECPInt.
 ECPInt:  NShTT=   97020 NPrTT=  376310 LenC2=   54673 LenP2D=  128693.
 LDataN:  DoStor=T MaxTD1= 4 Len=   56
 Number of processors reduced to  29 by ecpmxn.
 NBasis=   980 RedAO= T EigKep=  1.46D-04  NBF=   980
 NBsUse=   980 1.00D-06 EigRej= -1.00D+00 NBFU=   980
 Precomputing XC quadrature grid using
 IXCGrd= 4 IRadAn=           5 IRanWt=          -1 IRanGd=           0 AccXCQ= 0.00D+00.
 Generated NRdTot=       0 NPtTot=           0 NUsed=           0 NTot=          32
 NSgBfM=   922   915   915   915   922 MxSgAt=    83 MxSgA2=    83.
 Leave Link  302 at Tue Oct  8 09:45:36 2024, MaxMem=  1342177280 cpu:              49.0 elap:               1.6
 (Enter /share/apps/g16A03/l303.exe)
 DipDrv:  MaxL=1.
 Leave Link  303 at Tue Oct  8 09:45:37 2024, MaxMem=  1342177280 cpu:               5.2 elap:               0.2
 (Enter /share/apps/g16A03/l401.exe)
 ExpMin= 1.22D-01 ExpMax= 9.18D+03 ExpMxC= 1.38D+03 IAcc=3 IRadAn=         5 AccDes= 0.00D+00
 Harris functional with IExCor= 1009 and IRadAn=       5 diagonalized for initial guess.
 HarFok:  IExCor= 1009 AccDes= 0.00D+00 IRadAn=         5 IDoV= 1 UseB2=F ITyADJ=14
 ICtDFT=  3500011 ScaDFX=  1.000000  1.000000  1.000000  1.000000
 FoFCou: FMM=F IPFlag=           0 FMFlag=      100000 FMFlg1=        2001
         NFxFlg=           0 DoJE=T BraDBF=F KetDBF=T FulRan=T
         wScrn=  0.000000 ICntrl=       500 IOpCl=  0 I1Cent=   200000004 NGrid=           0
         NMat0=    1 NMatS0=      1 NMatT0=    0 NMatD0=    1 NMtDS0=    0 NMtDT0=    0
 Petite list used in FoFCou.
 Harris En= -4173.34541276847    
 JPrj=0 DoOrth=F DoCkMO=F.
 Leave Link  401 at Tue Oct  8 09:45:39 2024, MaxMem=  1342177280 cpu:              70.1 elap:               2.2
 (Enter /share/apps/g16A03/l502.exe)
 Integral symmetry usage will be decided dynamically.
 Closed shell SCF:
 Using DIIS extrapolation, IDIIS=  1040.
 NGot=  1342177280 LenX=  1339966195 LenY=  1338881473
 Requested convergence on RMS density matrix=1.00D-08 within 128 cycles.
 Requested convergence on MAX density matrix=1.00D-06.
 Requested convergence on             energy=1.00D-06.
 No special actions if energy rises.
 Fock matrices will be formed incrementally for  20 cycles.

 Cycle   1  Pass 1  IDiag  1:
 FoFJK:  IHMeth= 1 ICntrl=       0 DoSepK=F KAlg= 0 I1Cent=           0 FoldK=F
 IRaf= 590000000 NMat=       1 IRICut=       1 DoRegI=T DoRafI=F ISym2E= 0 IDoP0=0 IntGTp=1.
 FoFCou: FMM=T IPFlag=           0 FMFlag=      100000 FMFlg1=        2001
         NFxFlg=           0 DoJE=F BraDBF=F KetDBF=F FulRan=T
         wScrn=  0.000000 ICntrl=         0 IOpCl=  0 I1Cent=           0 NGrid=           0
         NMat0=    1 NMatS0=      1 NMatT0=    0 NMatD0=    1 NMtDS0=    0 NMtDT0=    0
 Symmetry not used in FoFCou.
 FMM levels:  10  Number of levels for PrismC:   9
 Inv3:  Mode=1 IEnd=   118013952.
 Iteration    1 A*A^-1 deviation from unit magnitude is 4.66D-15 for   4913.
 Iteration    1 A*A^-1 deviation from orthogonality  is 2.22D-15 for   5031    921.
 Iteration    1 A^-1*A deviation from unit magnitude is 4.66D-15 for   4913.
 Iteration    1 A^-1*A deviation from orthogonality  is 2.22D-15 for   5234   1105.
 E= -4174.35198231931    
 DIIS: error= 2.83D-02 at cycle   1 NSaved=   1.
 NSaved= 1 IEnMin= 1 EnMin= -4174.35198231931     IErMin= 1 ErrMin= 2.83D-02
 ErrMax= 2.83D-02  0.00D+00 EMaxC= 1.00D-01 BMatC= 1.41D+00 BMatP= 1.41D+00
 IDIUse=3 WtCom= 7.17D-01 WtEn= 2.83D-01
 Coeff-Com:  0.100D+01
 Coeff-En:   0.100D+01
 Coeff:      0.100D+01
 Gap=     0.202 Goal=   None    Shift=    0.000
 GapD=    0.202 DampG=1.000 DampE=0.500 DampFc=0.5000 IDamp=-1.
 Damping current iteration by 5.00D-01
 RMSDP=3.61D-03 MaxDP=1.77D-01              OVMax= 2.17D-01

 Cycle   2  Pass 1  IDiag  1:
 RMSU=  1.80D-03    CP:  9.85D-01
 E= -4174.88628086875     Delta-E=       -0.534298549439 Rises=F Damp=T
 DIIS: error= 8.16D-03 at cycle   2 NSaved=   2.
 NSaved= 2 IEnMin= 2 EnMin= -4174.88628086875     IErMin= 2 ErrMin= 8.16D-03
 ErrMax= 8.16D-03  0.00D+00 EMaxC= 1.00D-01 BMatC= 1.38D-01 BMatP= 1.41D+00
 IDIUse=3 WtCom= 9.18D-01 WtEn= 8.16D-02
 Coeff-Com:  0.635D-01 0.937D+00
 Coeff-En:   0.901D-01 0.910D+00
 Coeff:      0.656D-01 0.934D+00
 Gap=     0.159 Goal=   None    Shift=    0.000
 RMSDP=1.13D-03 MaxDP=6.69D-02 DE=-5.34D-01 OVMax= 1.40D-01

 Cycle   3  Pass 1  IDiag  1:
 RMSU=  1.09D-03    CP:  9.65D-01  1.05D+00
 E= -4175.50884466961     Delta-E=       -0.622563800860 Rises=F Damp=F
 DIIS: error= 1.11D-02 at cycle   3 NSaved=   3.
 NSaved= 3 IEnMin= 3 EnMin= -4175.50884466961     IErMin= 2 ErrMin= 8.16D-03
 ErrMax= 1.11D-02  0.00D+00 EMaxC= 1.00D-01 BMatC= 8.29D-02 BMatP= 1.38D-01
 IDIUse=3 WtCom= 8.89D-01 WtEn= 1.11D-01
 Coeff-Com: -0.506D-01 0.435D+00 0.616D+00
 Coeff-En:   0.000D+00 0.000D+00 0.100D+01
 Coeff:     -0.450D-01 0.386D+00 0.659D+00
 Gap=     0.130 Goal=   None    Shift=    0.000
 RMSDP=5.00D-04 MaxDP=2.73D-02 DE=-6.23D-01 OVMax= 4.73D-02

 Cycle   4  Pass 1  IDiag  1:
 RMSU=  4.01D-04    CP:  9.69D-01  1.14D+00  7.71D-01
 E= -4175.56801832114     Delta-E=       -0.059173651523 Rises=F Damp=F
 DIIS: error= 4.10D-03 at cycle   4 NSaved=   4.
 NSaved= 4 IEnMin= 4 EnMin= -4175.56801832114     IErMin= 4 ErrMin= 4.10D-03
 ErrMax= 4.10D-03  0.00D+00 EMaxC= 1.00D-01 BMatC= 1.66D-02 BMatP= 8.29D-02
 IDIUse=3 WtCom= 9.59D-01 WtEn= 4.10D-02
 Coeff-Com: -0.144D-01 0.454D-01 0.331D+00 0.638D+00
 Coeff-En:   0.000D+00 0.000D+00 0.158D+00 0.842D+00
 Coeff:     -0.138D-01 0.435D-01 0.324D+00 0.647D+00
 Gap=     0.136 Goal=   None    Shift=    0.000
 RMSDP=2.02D-04 MaxDP=1.36D-02 DE=-5.92D-02 OVMax= 2.36D-02

 Cycle   5  Pass 1  IDiag  1:
 RMSU=  1.06D-04    CP:  9.67D-01  1.11D+00  8.35D-01  6.25D-01
 E= -4175.58273964471     Delta-E=       -0.014721323570 Rises=F Damp=F
 DIIS: error= 4.44D-04 at cycle   5 NSaved=   5.
 NSaved= 5 IEnMin= 5 EnMin= -4175.58273964471     IErMin= 5 ErrMin= 4.44D-04
 ErrMax= 4.44D-04  0.00D+00 EMaxC= 1.00D-01 BMatC= 4.74D-04 BMatP= 1.66D-02
 IDIUse=3 WtCom= 9.96D-01 WtEn= 4.44D-03
 Coeff-Com: -0.196D-02-0.295D-02 0.105D+00 0.268D+00 0.632D+00
 Coeff-En:   0.000D+00 0.000D+00 0.000D+00 0.000D+00 0.100D+01
 Coeff:     -0.195D-02-0.294D-02 0.105D+00 0.267D+00 0.634D+00
 Gap=     0.137 Goal=   None    Shift=    0.000
 RMSDP=4.14D-05 MaxDP=3.40D-03 DE=-1.47D-02 OVMax= 6.83D-03

 Cycle   6  Pass 1  IDiag  1:
 RMSU=  2.99D-05    CP:  9.67D-01  1.11D+00  8.47D-01  6.71D-01  8.35D-01
 E= -4175.58327862578     Delta-E=       -0.000538981076 Rises=F Damp=F
 DIIS: error= 1.51D-04 at cycle   6 NSaved=   6.
 NSaved= 6 IEnMin= 6 EnMin= -4175.58327862578     IErMin= 6 ErrMin= 1.51D-04
 ErrMax= 1.51D-04  0.00D+00 EMaxC= 1.00D-01 BMatC= 4.66D-05 BMatP= 4.74D-04
 IDIUse=3 WtCom= 9.98D-01 WtEn= 1.51D-03
 Coeff-Com:  0.166D-02-0.784D-02 0.418D-02 0.298D-01 0.227D+00 0.745D+00
 Coeff-En:   0.000D+00 0.000D+00 0.000D+00 0.000D+00 0.000D+00 0.100D+01
 Coeff:      0.166D-02-0.783D-02 0.417D-02 0.297D-01 0.227D+00 0.745D+00
 Gap=     0.137 Goal=   None    Shift=    0.000
 RMSDP=1.63D-05 MaxDP=1.16D-03 DE=-5.39D-04 OVMax= 4.17D-03

 Cycle   7  Pass 1  IDiag  1:
 RMSU=  1.22D-05    CP:  9.67D-01  1.11D+00  8.51D-01  6.79D-01  9.23D-01
                    CP:  1.00D+00
 E= -4175.58335467255     Delta-E=       -0.000076046770 Rises=F Damp=F
 DIIS: error= 6.28D-05 at cycle   7 NSaved=   7.
 NSaved= 7 IEnMin= 7 EnMin= -4175.58335467255     IErMin= 7 ErrMin= 6.28D-05
 ErrMax= 6.28D-05  0.00D+00 EMaxC= 1.00D-01 BMatC= 9.77D-06 BMatP= 4.66D-05
 IDIUse=1 WtCom= 1.00D+00 WtEn= 0.00D+00
 Coeff-Com:  0.142D-02-0.359D-02-0.172D-01-0.374D-01-0.260D-01 0.302D+00
 Coeff-Com:  0.781D+00
 Coeff:      0.142D-02-0.359D-02-0.172D-01-0.374D-01-0.260D-01 0.302D+00
 Coeff:      0.781D+00
 Gap=     0.137 Goal=   None    Shift=    0.000
 RMSDP=8.92D-06 MaxDP=5.48D-04 DE=-7.60D-05 OVMax= 2.09D-03

 Cycle   8  Pass 1  IDiag  1:
 RMSU=  5.53D-06    CP:  9.67D-01  1.11D+00  8.53D-01  6.83D-01  9.53D-01
                    CP:  1.18D+00  1.00D+00
[...]
 0.00004873,0.00018619,0.00068681,-0.00129660,0.00004288,-0.00000491,0.
 00003986,0.00003620,0.00009100,-0.00006500,-0.00017818,0.00005639,0.00
 005978,0.00011274,-0.00003717,0.00002650,0.00001124,0.00003620,0.00001
 941,0.00000194,-0.00000585,0.00004592,0.00001098,0.00000008,0.00002061
 ,0.00000576,-0.00000998,0.00000442,0.00000075,-0.00000671,-0.00000087,
 -0.00000008,0.00000697,0.00001065,0.00000168,0.00000978,0.00000518,0.0
 0000140,-0.00000799,-0.00001110,-0.00000211,-0.00000798,0.00000890,0.0
 0000181,0.00000395,0.00000663,0.00000157,0.00005088,-0.00001452,-0.000
 00244,-0.00007055,0.00000069,-0.00000104,0.00009932,-0.00002907,-0.000
 00386,0.00001205,-0.00003869,-0.00000943,-0.00001552,0.00001298,0.0000
 0339,0.00001449,-0.00001799,-0.00000485,-0.00009852,0.00003246,-0.0000
 0483,-0.00002903,-0.00000694,-0.00000096,-0.00000423,0.00002322,0.0000
 0734,-0.00001435,0.00001380,0.00000366,0.00680423,0.00457190,-0.001093
 47,0.00000219,-0.00000035,0.00000392,0.00000014,0.00000034,-0.00000080
 ,0.00000011,-0.00000011,-0.00000067,-0.00000021,-0.00000015,-0.0000004
 7,0.00000078,-0.00000021,-0.00000046,0.00000451,0.00000700,-0.00000245
 ,-0.00000796,0.00001153,-0.00000144,-0.00000191,0.00000576,0.00000414,
 -0.00000171,0.00000071,0.00000092,0.00000483,0.00000031,-0.00000324,0.
 00000331,-0.00000092,0.00000378,-0.00000065,0.00000115,-0.00000072,-0.
 00000071,-0.00000668,-0.00000192,-0.00000131,0.00000141,0.00000026,-0.
 00000043,0.00000134,0.00000037,0.00000067,-0.00000061,-0.00000092,0.00
 000108,-0.00000159,-0.00000174,-0.00000054,0.00000070,0.00000011,-0.00
 000004,0.00000016,0.00000041,0.00000009,0.00000032,-0.00000033,0.00000
 114,0.00000412,-0.00000262,-0.00000026,-0.00000062,0.00000105,-0.00000
 053,-0.00000123,-0.00000084,0.00000035,-0.00000014,-0.00000055,-0.2185
 2771,-0.05701789,-0.11826069,-0.01705383,-0.00815784,-0.01502710,0.224
 10548,0.00001054,0.00001641,0.00000304,0.00001380,-0.00001137,-0.00000
 220,-0.00001106,-0.00000670,-0.00000058,0.00001511,0.00000354,0.000001
 02,0.00001609,-0.00000279,-0.00000046,-0.00001539,-0.00000604,-0.00000
 117,-0.00000842,0.00000331,-0.00000437,-0.00002147,0.00005730,0.000022
 17,-0.00006107,-0.00002758,-0.00001143,0.00000367,-0.00001932,-0.00000
 652,-0.00001060,0.00005712,0.00000454,0.00001080,-0.00002251,-0.000000
 51,0.,0.00002709,0.00000304,-0.00001516,-0.00000424,-0.00000058,0.0000
 1749,0.00000867,0.00000130,-0.00001681,-0.00002083,-0.00000176,0.00000
 906,-0.00001556,-0.00000121,0.00003573,-0.00004406,-0.00000201,0.00001
 005,0.00000740,0.00000136,0.00001177,0.00001350,0.00000083,0.00004874,
 0.00003636,0.00002727,-0.00007674,0.00001600,0.00003354,-0.00000973,-0
 .00003506,-0.00010526,0.00020670,-0.00010472,-0.00007397,0.00001866,0.
 00037986,-0.00016767,-0.00052990,0.00007414,0.00033258,-0.00016170,-0.
 00002467,-0.00001777,0.00020385,0.00023770,0.00003255,0.00032663,-0.00
 082917,-0.00078288,0.00192326,0.00503827,0.00210871,0.00002559,-0.0000
 5743,0.00000365,-0.00002338,0.00002273,-0.00000373,-0.00022496,-0.0000
 9481,0.00006024,0.00001889,-0.00000134,0.00000641,0.00000703,-0.000007
 42,0.00000544,-0.00000689,-0.00000449,-0.00000328,0.00000801,0.0000032
 1,0.00000059,-0.00000721,-0.00000114,-0.00000111,0.00000182,0.00000207
 ,0.00000021,-0.00000350,0.00000028,-0.00000026,0.00000490,0.00000173,0
 .00000094,-0.00000291,-0.00000356,-0.00000083,-0.00000090,0.00000378,0
 .00000077,-0.00000008,0.00000137,0.00000025,0.00001901,-0.00000717,-0.
 00000039,-0.00001821,0.00000647,0.00000029,0.00002284,-0.00001107,-0.0
 0000030,0.00000065,-0.00000641,-0.00000100,-0.00000091,0.00000270,0.00
 000038,0.00000215,-0.00000597,-0.00000088,-0.00000817,0.00001874,-0.00
 000007,-0.00000953,0.00000020,-0.00000033,0.00000235,0.00000260,-0.000
 00021,-0.00000260,0.00000365,0.00000059,0.01684949,-0.00131948,0.02180
 495,-0.00001144,0.00000105,0.00000421,0.00000054,0.00000114,-0.0000001
 5,0.00000002,-0.00000051,-0.00000032,0.00000005,-0.00000005,-0.0000000
 5,0.00000048,-0.00000038,-0.00000004,0.00000139,-0.00000399,-0.0000008
 9,0.,0.00000126,0.00000067,0.00000026,0.00000154,-0.00000016,0.0000004
 4,-0.00000542,-0.00000031,0.00000267,0.00000033,-0.00000271,0.00000223
 ,-0.00000084,0.00000306,-0.00000003,0.00000109,-0.00000005,0.00000013,
 -0.00000131,-0.00000023,0.,0.00000014,0.00000005,-0.00000013,0.0000001
 7,-0.00000006,0.00000017,-0.00000016,0.00000009,0.00000176,-0.00000299
 ,-0.00000055,-0.00000062,0.00000037,-0.00000026,-0.00000052,0.00000027
 ,0.00000038,0.00000015,0.00000042,0.,0.00000041,0.00001885,-0.00000195
 ,0.00000228,-0.00000033,-0.00000320,0.00000364,-0.00000160,0.00000356,
 0.00000092,-0.00000216,0.00000007,-0.05916623,-0.07203371,-0.04628779,
 0.00436062,0.00224625,0.00178414,0.05930976,0.07022045,0.00000292,0.00
 001208,0.00000226,0.00000915,-0.00000505,-0.00000096,-0.00000836,-0.00
 001091,-0.00000116,0.00002370,-0.00000419,-0.00000388,0.00000543,0.000
 00247,0.00000239,-0.00001046,-0.00001160,-0.00000227,-0.00002392,-0.00
 002930,-0.00000080,0.00003853,0.00000276,-0.00001718,-0.00000239,-0.00
 005894,0.00001488,0.00001547,-0.00003208,-0.00001014,0.00007198,0.0000
 9503,0.00001346,-0.00005194,-0.00002430,-0.00000194,0.00003156,0.00003
 784,0.00000352,0.00000122,0.00001023,0.00000083,-0.00000222,-0.0000060
 7,-0.00000050,-0.00000805,0.00002306,0.00000084,-0.00001410,-0.0000094
 3,0.00000024,-0.00008475,-0.00008347,0.00001808,-0.00000421,-0.0000068
 4,-0.00000060,0.00000764,-0.00001039,0.00000079,-0.00002960,-0.0000731
 5,-0.00004642,-0.00005801,-0.00006409,-0.00001495,0.00029085,0.0000178
 7,0.00031138,-0.00002655,0.00020966,-0.00017498,-0.00079427,0.00086854
 ,0.00045325,0.00030702,0.00011529,-0.00060138,0.00017063,0.00006981,0.
 00007272,-0.00021871,-0.00022820,-0.00007074,-0.00022313,0.00133246,0.
 00064951,0.00090328,-0.00667291,-0.00110524,0.00008709,0.00005265,0.00
 001141,-0.00007386,-0.00011130,0.00011737,0.00060273,-0.00006228,-0.00
 016053,-0.00002616,-0.00000781,-0.00001708,0.00003452,-0.00003016,0.00
 000390,-0.00001479,0.00005331,0.00000576,0.00001371,0.00000531,0.00000
 083,-0.00002227,-0.00000152,-0.00000109,-0.00001904,0.00000152,0.00000
 100,0.00000774,-0.00001143,-0.00000451,0.00001607,-0.00000181,0.000000
 38,-0.00001380,-0.00001781,-0.00000371,-0.00001438,0.00001881,0.000003
 52,0.00001685,0.00000030,0.00000020,0.00002352,0.00001278,0.00000082,-
 0.00003559,-0.00001490,-0.00000217,0.00003835,0.00003464,0.00000596,0.
 00002498,-0.00002671,-0.00000594,-0.00002205,0.00001047,0.00000191,0.0
 0001983,-0.00001043,-0.00000231,-0.00005080,-0.00002608,0.00001108,-0.
 00001961,-0.00001535,-0.00000177,-0.00001544,0.00001797,0.00000472,-0.
 00001542,0.00001143,0.00000250,-0.02147882,0.00800073,-0.02869007,-0.0
 0002988,0.00000147,-0.00000990,0.00000082,0.00000087,-0.00000014,-0.00
 000028,-0.00000053,-0.00000031,0.00000002,-0.00000055,-0.00000035,0.00
 000009,0.00000049,-0.00000028,0.00000169,0.00001900,0.00000621,0.00000
 417,0.00002885,0.00001031,0.00000335,0.00003200,0.00000547,-0.00000242
 ,0.00001136,-0.00000181,-0.00000021,-0.00000154,0.00000073,0.00000063,
 -0.00000046,0.,-0.00000060,-0.00000070,0.00000017,-0.00000061,-0.00000
 597,-0.00000136,-0.00000067,0.00000111,0.00000037,-0.00000040,0.000001
 09,-0.00000003,0.00000078,-0.00000098,-0.00000037,-0.00000119,0.000003
 02,0.00000033,-0.00000004,-0.00000042,-0.00000020,0.00000013,-0.000000
 58,0.00000011,-0.00000024,-0.00000021,-0.00000013,-0.00000145,0.000008
 39,-0.00000331,0.00000367,0.00000154,-0.00000449,0.00000523,-0.0000006
 6,0.00000519,0.00000006,-0.00000187,0.00000041,-0.11449702,-0.04099864
 ,-0.12996518,0.01192853,0.00367583,0.01103432,0.13052615,0.03584625,0.
 15168030,-0.00000200,-0.00000102,-0.00000004,-0.00000053,0.00000003,0.
 ,-0.00000115,0.00000382,0.00000092,0.00000037,0.00000107,0.00000018,-0
 .00000514,0.00000225,0.00000024,0.00000438,0.00000468,0.00000083,-0.00
 000047,0.00000402,-0.00000086,0.00000451,-0.00000608,0.00000008,0.0000
 0465,-0.00000080,0.00000267,0.00000223,0.00000995,0.00000165,-0.000026
 55,-0.00003831,-0.00000553,0.00002231,0.00001851,0.00000195,-0.0000226
 4,-0.00002148,-0.00000362,0.00000118,-0.00000732,-0.00000159,-0.000001
 53,0.00000263,0.00000067,0.00000305,-0.00000669,-0.00000163,0.00000978
 ,0.00000659,0.00000097,0.00000910,0.00003818,0.00000870,0.00000121,0.0
 0000400,0.00000084,-0.00000382,0.00000351,0.00000111,-0.00000709,-0.00
 000360,-0.00000119,0.00001486,-0.00001394,-0.00000632,-0.00000621,0.00
 001391,0.00005976,-0.00008908,0.00016655,0.00002465,-0.00019126,0.0000
 5083,-0.00006686,0.00025054,-0.00003960,-0.00013376,0.00012637,0.00001
 584,0.00000331,-0.00005119,-0.00017253,-0.00002464,-0.00015675,-0.0000
 5139,0.00003160,0.00061930,-0.00017443,-0.00010644,0.00001890,0.000015
 21,0.00001056,-0.00001319,-0.00002083,-0.00007853,0.00024787,0.0000939
 2,0.00015885,-0.00001075,0.00000149,0.00000239,0.00002410,-0.00000465,
 -0.00000411,-0.00000260,0.00002421,0.00000330,0.00000687,-0.00000216,0
 .00000147,-0.00000776,-0.00000152,-0.00000043,-0.00000929,-0.00000352,
 -0.00000066,0.00000398,-0.00001497,-0.00000262,0.00000534,-0.00000483,
 -0.00000096,-0.00000542,-0.00000586,-0.00000129,-0.00000669,0.00000686
 ,0.00000101,0.00001036,-0.00000442,-0.00000063,-0.00001919,0.00002273,
 0.00000413,0.00001416,-0.00002030,-0.00000257,-0.00001964,0.00004620,0
 .00000759,0.00000887,-0.00000051,0.00000064,-0.00000735,0.00000025,-0.
 00000039,0.00000557,0.00000443,0.00000136,0.00000033,-0.00004358,-0.00
 001105,0.00000458,-0.00001038,-0.00000188,-0.00000744,0.00000086,-0.00
 000066,-0.00000255,-0.00000050,-0.00000037,0.00084961,0.00044071,-0.00
 012694,0.00000156,-0.00000035,-0.00000143,-0.00000064,-0.00000081,-0.0
 0000016,0.00000006,0.00000012,-0.00000004,0.00000011,-0.00000032,0.000
 00001,-0.00000082,0.00000088,0.00000019,0.00000036,0.00000190,0.000000
 29,-0.00000119,0.00000121,0.00000121,-0.00000102,0.00000219,0.00000041
 ,-0.00000197,0.00001567,0.00000165,-0.00000433,-0.00000058,0.00000515,
 -0.00000356,0.00000077,-0.00000569,-0.00000040,-0.00000210,-0.00000013
 ,-0.00000027,-0.00000032,-0.00000002,0.00000005,0.00000013,0.00000007,
 -0.00000005,0.00000019,-0.00000002,0.00000008,-0.00000021,0.00000005,0
 .00000010,-0.00000132,-0.00000032,-0.00000012,0.00000020,0.00000007,-0
 .00000008,0.00000015,0.00000002,0.00000018,-0.00000003,-0.00000001,0.0
 0000091,-0.00001140,-0.00000080,-0.00000361,-0.00000155,0.00000514,-0.
 00000407,-0.00000035,-0.00000505,-0.00000045,0.00000185,0.00000007,-0.
 05370384,0.02705315,0.00955120,-0.00020221,0.02505973,0.00807805,0.004
 48630,-0.02310633,-0.00732235,0.04784183,-0.00001877,-0.00003706,-0.00
 000635,-0.00003144,0.00002583,0.00000527,0.00002963,0.00001104,0.00000
 113,-0.00004495,-0.00000531,-0.00000025,-0.00002538,-0.00000059,0.0000
 0026,0.00002811,0.00000850,0.00000111,0.00003477,-0.00000035,-0.000001
 15,-0.00001464,-0.00009958,-0.00001662,0.00009392,0.00005880,0.0000103
 9,-0.00000746,0.00003375,0.00000573,0.00006734,-0.00006933,-0.00001360
 ,-0.00005409,0.00002394,0.00000562,0.00003377,-0.00002707,-0.00000527,
 0.00002771,0.00001856,0.00000277,-0.00003072,-0.00002015,-0.00000300,0
 .00003105,0.00004356,0.00000754,-0.00003398,0.00002413,0.00000476,-0.0
 0007865,0.00004323,0.00000192,-0.00002058,-0.00001976,-0.00000317,-0.0
 0001926,-0.00002859,-0.00000470,-0.00003119,0.00000627,0.00000068,0.00
 010619,0.00001200,-0.00001499,-0.00014122,0.00007042,0.00002414,-0.000
 01956,-0.00001940,-0.00016985,0.00051686,-0.00055787,0.00009870,0.0001
 0086,0.00001328,0.00000915,-0.00001537,-0.00003994,0.00001308,0.000022
 02,-0.00004792,-0.00017088,-0.00043186,-0.00062009,0.00007786,-0.00024
 605,0.00124408,0.00350267,-0.00010515,-0.00000669,-0.00001718,0.000128
 43,0.00008340,0.00001707,-0.00005746,0.00001120,0.00002588,0.00002536,
 0.00001379,0.00000383,-0.00010154,0.00004468,0.00000692,0.00002974,-0.
 00009444,-0.00001753,-0.00003342,-0.00000680,-0.00000225,0.00004484,0.
 00000144,0.00000147,0.00002321,0.00000323,0.00000129,0.00000357,0.0000
 3267,0.00000588,-0.00003086,0.00000528,-0.00000018,0.00002619,0.000030
 04,0.00000657,0.00002397,-0.00003274,-0.00000564,-0.00002750,0.0000031
 9,-0.00000013,-0.00003343,-0.00002858,-0.00000623,0.00005295,0.0000289
 3,0.00000748,-0.00005862,-0.00007252,-0.00001569,-0.00003825,0.0000396
 7,0.00000683,0.00003369,-0.00001609,-0.00000216,-0.00003035,0.00001544
 ,0.00000214,0.00007007,0.00004695,0.00000423,0.00003121,0.00002804,0.0
 0000610,0.00002311,-0.00002605,-0.00000439,0.00002333,-0.00001736,-0.0
 0000291,0.00218456,-0.02317438,-0.00036298,0.00006245,-0.00002304,0.00
 003414,-0.00000024,-0.00000112,-0.00000016,0.00000002,0.00000118,0.000
 00025,-0.00000018,0.00000108,0.00000026,0.00000025,-0.00000090,-0.0000
 0012,-0.00000580,-0.00001829,-0.00000736,-0.00000806,-0.00003843,-0.00
 001311,-0.00000287,-0.00004933,-0.00001147,0.00000495,-0.00002080,-0.0
 0000339,0.00000030,0.00000190,-0.00000157,0.00000014,0.00000105,0.0000
 0214,0.00000125,0.00000146,0.00000023,0.00000077,0.00000873,0.00000175
 ,0.00000079,-0.00000170,-0.00000048,0.00000077,-0.00000179,0.00000001,
 -0.00000119,0.00000144,0.00000023,-0.00000320,0.00000725,0.00000133,0.
 00000137,-0.00000089,0.00000055,0.00000130,-0.00000059,-0.00000084,-0.
 00000055,-0.00000064,-0.00000014,-0.00000125,-0.00002407,-0.00000353,-
 0.00000118,0.00000069,0.00000322,-0.00000142,0.00000182,-0.00000269,-0
 .00000159,0.00000167,0.00000017,0.02641077,-0.29771431,-0.08978830,-0.
 00059692,0.00041069,-0.00065709,0.00144515,-0.00379113,-0.00196663,-0.
 02934052,0.32429135,0.00000416,0.00000850,0.00000145,0.00000742,-0.000
 00597,-0.00000115,-0.00000713,-0.00000187,-0.00000008,0.00001219,0.000
 00190,-0.00000005,0.00000659,0.00000192,0.00000010,-0.00000573,-0.0000
 0058,0.00000019,-0.00000684,-0.00000125,0.00000003,0.00000852,0.000027
 56,0.00000645,-0.00001379,-0.00001383,-0.00000523,0.00000165,-0.000006
 02,-0.00000005,-0.00001962,0.00000429,0.00000077,0.00001696,0.00000018
 ,-0.00000172,-0.00000979,-0.00000003,-0.00000028,-0.00000347,-0.000005
 30,-0.00000163,0.00000476,0.00000483,0.00000125,-0.00000488,-0.0000106
 8,-0.00000329,0.00000785,-0.00000254,-0.00000081,0.00002675,-0.0000041
 3,0.00000641,0.00000348,0.00000443,0.00000115,0.00000365,0.00000902,0.
 00000340,0.00001531,-0.00000533,-0.00000531,-0.00005436,0.00002488,0.0
 0000748,0.00006711,-0.00004718,0.00003935,0.00013248,-0.00000970,0.000
 21848,-0.00041707,0.00089010,0.00015983,0.00007673,-0.00003457,-0.0001
 7076,0.00001777,0.00003895,-0.00001844,-0.00013709,-0.00004300,0.00020
 675,0.00022870,0.00090622,0.00018181,-0.00002451,0.00276150,-0.0034598
 5,0.00004903,0.00003420,0.00000869,-0.00006597,-0.00005138,0.00004145,
 -0.00004400,-0.00004868,-0.00016230,-0.00001347,-0.00000930,-0.0000083
 7,0.00001655,-0.00001338,-0.00000523,-0.00001191,0.00002599,0.00000702
 ,0.00000675,-0.00000085,0.00000006,-0.00001226,-0.00000005,-0.00000062
 ,-0.00000674,0.00000043,-0.00000022,-0.00000133,-0.00000749,-0.0000003
 9,0.00000723,-0.00000112,0.00000011,-0.00000626,-0.00000690,-0.0000014
 3,-0.00000554,0.00000758,0.00000128,0.00000594,-0.00000015,0.00000033,
 0.00000678,0.00000334,0.00000034,-0.00001318,-0.00000358,-0.00000230,0
 .00001351,0.00001094,0.00000194,0.00000674,-0.00000878,-0.00000291,-0.
 00000546,0.00000362,0.00000103,0.00000417,-0.00000386,-0.00000137,-0.0
 0002192,-0.00001156,0.00000467,-0.00000598,-0.00000406,-0.00000112,-0.
 00000527,0.00000759,0.00000321,-0.00000376,0.00000335,0.00000094,-0.00
 357524,0.03762596,0.00430468,-0.00003171,0.00001305,-0.00003399,0.0000
 0004,0.00000007,0.,0.00000012,-0.00000025,-0.00000014,-0.00000006,-0.0
 0000027,-0.00000015,-0.00000011,0.00000012,0.,0.00000272,0.00001056,0.
 00000181,0.00000379,0.00002325,0.00000624,-0.00000049,0.00002943,0.000
 00741,-0.00000111,0.00000259,0.00000187,0.00000040,-0.00000105,-0.0000
 0058,0.00000003,-0.00000038,-0.00000008,-0.00000008,-0.00000038,-0.000
 00006,-0.00000017,-0.00000170,-0.00000047,-0.00000049,0.00000049,0.000
 00004,-0.00000010,0.00000043,0.00000020,0.00000021,-0.00000012,-0.0000
 0038,0.00000087,-0.00000177,-0.00000078,-0.00000030,0.00000046,0.,-0.0
 0000021,0.00000024,0.00000025,0.00000013,0.00000019,-0.00000001,0.0000
 0071,0.00000205,0.00000196,-0.00000026,-0.00000050,0.00000031,-0.00000
 057,-0.00000114,-0.00000099,0.00000012,-0.00000023,-0.00000005,0.01085
 401,-0.10410438,-0.08350289,-0.00077680,-0.01279851,-0.00302515,0.0037
 4650,-0.01460766,-0.00352926,-0.01005344,0.08939122,0.08871919\\0.0000
 1043,0.00002340,0.00000203,0.00001894,-0.00002114,-0.00000369,-0.00002
 459,-0.00000537,-0.00000186,0.00000887,0.00002193,0.00000419,0.0000158
 1,-0.00002035,-0.00000458,-0.00002145,0.00000049,-0.00000033,-0.000004
 03,-0.00000766,0.00000225,0.00000186,0.00000819,-0.00000094,0.00001005
 ,-0.00000401,-0.00000688,-0.00000659,-0.00000071,0.00000564,-0.0000036
 3,0.00000207,-0.00001069,-0.00000093,-0.00000270,0.00000375,-0.0000087
 9,0.00000545,-0.00000173,0.00000204,-0.00000726,0.00000317,-0.00001015
 ,0.00000096,0.00000066,0.00000848,0.00000483,-0.00000058,0.00001160,-0
 .00000116,-0.00000069,-0.00000304,-0.00000040,-0.00000264,0.00000584,0
 .00000207,0.00000211,-0.00000498,-0.00000078,0.00000332,-0.00000063,-0
 .00000298,0.00000070,-0.00000107,-0.00000325,0.00000408,0.00000040,0.0
 0000224,0.00000395,0.00000552,0.00000692,0.00000103,0.00000003,-0.0000
 0931,-0.00000711,0.00000037,-0.00000087,-0.00000035,-0.00000146,0.0000
 0560,-0.00000321,-0.00000454,0.00000505,0.00000091,0.00000662,-0.00001
 461,0.00000088,-0.00000364,-0.00000055,-0.00000376,-0.00000074,-0.0000
 0294,-0.00000025,0.,0.00000045,0.00000432,-0.00000345,0.00000455,-0.00
 000600,0.00000342,-0.00000102,-0.00000208,-0.00000694,-0.00000231,-0.0
 0000405,-0.00000395,0.00000422,0.00000314,0.00000486,-0.00000649,0.000
 00314,-0.00001047,0.00001873,0.00000373,-0.00000865,-0.00001870,-0.000
 00457,0.00000347,0.00000208,0.00000041,0.00002231,-0.00000161,0.000001
 98,-0.00001214,-0.00001701,-0.00000198,-0.00001235,0.00001638,0.000002
 83,0.00001653,0.00000409,0.00000142,0.00000334,0.00001018,0.00000195,0
 .00000991,-0.00000178,0.00000015,-0.00000420,0.00000393,-0.00000197,-0
 .00000493,0.00000471,-0.00000200,-0.00000203,0.00000089,0.00000496,0.0
 0000110,-0.00000553,-0.00000359,0.00000158,-0.00000467,-0.00000096,-0.
 00000992,-0.00000215,-0.00000311,0.00000747,-0.00000111,0.00000402,-0.
 00000335,0.00000419,0.00000458,0.00000266,-0.00000396,0.00002115,0.000
 00048,0.00000417,0.00000551,-0.00000202,-0.00000446,-0.00000042,-0.000
 00340,0.00000334,0.00000045,0.00000265,0.00000360,0.00000145,0.0000017
 6,-0.00000156,0.00000012,-0.00000481,-0.00000089,0.00000007,0.00000262
 ,0.00000056,0.00000187,0.00000211,-0.00000362,0.00000045,-0.00000047,0
 .00000766,-0.00000121,-0.00000182,-0.00000133,-0.00000051,-0.00000131,
 0.00000027,-0.00000327,0.00000407,-0.00000095,-0.00000274,0.00000080,-
 0.00000749,0.00000038,0.00000318,0.00000162,0.00000538,0.00000067,0.00
 000092,0.00000256,-0.00000358,0.00000158,0.00000337,0.00000445,-0.0000
 1001,0.00000022,0.00000171,0.00000079,0.00000338,0.00000093,0.00000144
 ,0.00000110,-0.00000371,0.00000084,0.00000380,-0.00000186,0.00000797,-
 0.00000303,0.00000065,0.00000007,-0.00000327,0.00000215,-0.00000239,-0
 .00000105,-0.00000453,-0.00000277,-0.00000299,-0.00000085,0.00001403,-
 0.00003181,0.00000016,-0.00000199,0.00000192,-0.00000092,-0.00000198,0
 .00000160,0.00000003,-0.00000067,-0.00000022\\\@


 ON INDUCTION, OR "WHY DO YOU BELIEVE THE SUN WILL RISE TOMORROW?":

 ... THE FARMER WHO HAS FED THE CHICKEN EVERY DAY THROUGHOUT ITS
 LIFE AT LAST WRINGS ITS NECK INSTEAD, SHOWING THAT MORE REFINED VIEWS
 AS TO THE UNIFORMITY OF NATURE WOULD HAVE BEEN USEFUL TO THE CHICKEN.

                               -- BERTRAND RUSSELL
 Job cpu time:       0 days 22 hours 18 minutes 16.0 seconds.
 Elapsed time:       0 days  0 hours 42 minutes  9.8 seconds.
 File lengths (MBytes):  RWF=   9718 Int=      0 D2E=      0 Chk=    106 Scr=      1
 Normal termination of Gaussian 16 at Tue Oct  8 11:02:06 2024.
